LAMMPS data file. CGCMM style. atom_style full generated by VMD/TopoTools v1.2 on Thu Jan 26 17:27:13 CET 2017
 320 atoms
 212 bonds
 106 angles
 0 dihedrals
 0 impropers
 4 atom types
 1 bond types
 1 angle types
 0 dihedral types
 0 improper types
 0.000000 15.500000  xlo xhi
 0.000000 15.500000  ylo yhi
 0.000000 15.500000  zlo zhi

 Masses

 1 1.008000 # H
 2 15.999400 # O
 3 22.989769 # Na
 4 35.453000 # Cl

 Atoms

1 1 2 -1.048400 2.750000 8.844000 9.629000 # O TIP3
2 1 1 0.524200 2.110000 8.290000 9.998000 # H TIP3
3 1 1 0.524200 2.164000 9.245000 8.962000 # H TIP3
4 2 2 -1.048400 10.674000 8.909000 4.986000 # O TIP3
5 2 1 0.524200 10.998000 8.871000 5.932000 # H TIP3
6 2 1 0.524200 9.748000 9.270000 5.075000 # H TIP3
7 3 2 -1.048400 1.661000 6.681001 1.943000 # O TIP3
8 3 1 0.524200 1.943000 5.739000 1.981000 # H TIP3
9 3 1 0.524200 0.778000 6.599000 1.483000 # H TIP3
10 4 2 -1.048400 10.426001 7.604000 2.404000 # O TIP3
11 4 1 0.524200 10.761000 8.401000 1.994000 # H TIP3
12 4 1 0.524200 10.248001 7.889000 3.308000 # H TIP3
13 5 2 -1.048400 10.926000 5.365000 1.018000 # O TIP3
14 5 1 0.524200 11.138000 4.769000 1.754000 # H TIP3
15 5 1 0.524200 10.657000 6.212000 1.493000 # H TIP3
16 6 2 -1.048400 8.892000 12.977000 5.321000 # O TIP3
17 6 1 0.524200 8.119000 12.478000 5.443000 # H TIP3
18 6 1 0.524200 9.342000 12.557000 4.536000 # H TIP3
19 7 2 -1.048400 9.935000 12.876000 10.191001 # O TIP3
20 7 1 0.524200 9.709000 12.098000 9.634000 # H TIP3
21 7 1 0.524200 9.472000 12.766000 11.018000 # H TIP3
22 8 2 -1.048400 13.891000 1.919000 2.992000 # O TIP3
23 8 1 0.524200 14.198000 2.681000 3.422000 # H TIP3
24 8 1 0.524200 13.212000 1.577000 3.578000 # H TIP3
25 9 2 -1.048400 8.823000 10.581001 8.827000 # O TIP3
26 9 1 0.524200 8.183000 10.753001 8.148000 # H TIP3
27 9 1 0.524200 8.389000 10.061001 9.534000 # H TIP3
28 10 2 -1.048400 9.078000 11.967000 12.734001 # O TIP3
29 10 1 0.524200 8.228000 11.561001 12.993001 # H TIP3
30 10 1 0.524200 9.512000 12.194000 13.560000 # H TIP3
31 11 2 -1.048400 10.282001 0.640000 2.053000 # O TIP3
32 11 1 0.524200 10.367001 0.959000 3.016000 # H TIP3
33 11 1 0.524200 9.743000 1.323000 1.667000 # H TIP3
34 12 2 -1.048400 4.618000 8.125000 7.777000 # O TIP3
35 12 1 0.524200 5.405001 7.919001 8.314000 # H TIP3
36 12 1 0.524200 4.002000 8.458000 8.422000 # H TIP3
37 13 2 -1.048400 3.403000 4.687000 9.815000 # O TIP3
38 13 1 0.524200 3.109000 5.272000 9.097000 # H TIP3
39 13 1 0.524200 3.817000 3.973000 9.327000 # H TIP3
40 14 2 -1.048400 3.119000 10.325001 13.158001 # O TIP3
41 14 1 0.524200 3.598000 10.900001 12.512001 # H TIP3
42 14 1 0.524200 3.440000 9.430000 12.962000 # H TIP3
43 15 2 -1.048400 5.458000 13.097000 4.589000 # O TIP3
44 15 1 0.524200 5.673000 13.019000 3.612000 # H TIP3
45 15 1 0.524200 4.899000 13.894000 4.657000 # H TIP3
46 16 2 -1.048400 5.160000 13.744000 7.954000 # O TIP3
47 16 1 0.524200 6.048000 13.422001 8.207000 # H TIP3
48 16 1 0.524200 5.008000 14.493000 8.528000 # H TIP3
49 17 2 -1.048400 2.344000 10.571001 2.624000 # O TIP3
50 17 1 0.524200 2.122000 10.753001 3.553000 # H TIP3
51 17 1 0.524200 2.947000 9.791000 2.617000 # H TIP3
52 18 2 -1.048400 2.710000 6.185000 7.540000 # O TIP3
53 18 1 0.524200 2.467000 6.236000 6.561000 # H TIP3
54 18 1 0.524200 3.410000 6.855000 7.580000 # H TIP3
55 19 2 -1.048400 10.929001 14.750000 5.718000 # O TIP3
56 19 1 0.524200 10.050000 14.541000 5.408000 # H TIP3
57 19 1 0.524200 11.401000 13.879000 5.717000 # H TIP3
58 20 2 -1.048400 0.747000 4.469000 10.579000 # O TIP3
59 20 1 0.524200 0.426000 3.568000 10.339001 # H TIP3
60 20 1 0.524200 1.505000 4.585000 9.990000 # H TIP3
61 21 2 -1.048400 8.236000 7.987000 0.644000 # O TIP3
62 21 1 0.524200 8.544000 7.810000 -0.252000 # H TIP3
63 21 1 0.524200 9.065000 7.780001 1.085000 # H TIP3
64 22 2 -1.048400 7.027000 2.224000 13.411001 # O TIP3
65 22 1 0.524200 6.185000 2.801000 13.535000 # H TIP3
66 22 1 0.524200 6.692000 1.403000 13.742000 # H TIP3
67 23 2 -1.048400 4.028000 7.699000 12.776001 # O TIP3
68 23 1 0.524200 4.577000 7.193000 12.138000 # H TIP3
69 23 1 0.524200 3.171000 7.320001 12.544001 # H TIP3
70 24 2 -1.048400 12.493000 9.451000 2.215000 # O TIP3
71 24 1 0.524200 12.908000 9.840000 2.987000 # H TIP3
72 24 1 0.524200 12.982000 8.641000 2.039000 # H TIP3
73 25 2 -1.048400 11.177000 9.610000 7.928000 # O TIP3
74 25 1 0.524200 10.443000 10.172000 8.053000 # H TIP3
75 25 1 0.524200 10.866001 8.788000 8.298000 # H TIP3
76 26 2 -1.048400 13.134001 4.535000 6.559000 # O TIP3
77 26 1 0.524200 12.434000 3.932000 6.938000 # H TIP3
78 26 1 0.524200 13.959000 4.162000 6.965000 # H TIP3
79 27 2 -1.048400 1.978000 0.736000 1.507000 # O TIP3
80 27 1 0.524200 1.679000 -0.091000 1.974000 # H TIP3
81 27 1 0.524200 1.314000 0.861000 0.759000 # H TIP3
82 28 2 -1.048400 7.929000 9.601000 4.322000 # O TIP3
83 28 1 0.524200 7.364000 10.340000 3.912000 # H TIP3
84 28 1 0.524200 7.318000 9.011000 4.820000 # H TIP3
85 29 2 -1.048400 3.320000 1.439000 3.693000 # O TIP3
86 29 1 0.524200 3.018000 1.263000 2.795000 # H TIP3
87 29 1 0.524200 4.218000 1.737000 3.533000 # H TIP3
88 30 2 -1.048400 4.539000 2.605000 8.295000 # O TIP3
89 30 1 0.524200 5.460000 2.702000 8.123000 # H TIP3
90 30 1 0.524200 4.434000 1.616000 8.363000 # H TIP3
91 31 2 -1.048400 14.403000 0.272000 11.473000 # O TIP3
92 31 1 0.524200 13.988000 -0.564000 11.646000 # H TIP3
93 31 1 0.524200 14.385000 0.763000 12.380000 # H TIP3
94 32 2 -1.048400 12.793001 13.364000 12.168001 # O TIP3
95 32 1 0.524200 12.787000 13.548001 11.223001 # H TIP3
96 32 1 0.524200 11.995000 13.794001 12.399000 # H TIP3
97 33 2 -1.048400 6.667000 7.547000 9.646000 # O TIP3
98 33 1 0.524200 6.103000 6.975000 10.296000 # H TIP3
99 33 1 0.524200 7.558000 7.292000 10.046000 # H TIP3
100 34 2 -1.048400 4.654000 5.717000 5.023000 # O TIP3
101 34 1 0.524200 5.059000 5.126000 4.395000 # H TIP3
102 34 1 0.524200 5.409000 5.785000 5.634000 # H TIP3
103 35 2 -1.048400 5.488000 14.255000 13.212000 # O TIP3
104 35 1 0.524200 6.279000 14.126000 13.709001 # H TIP3
105 35 1 0.524200 4.864000 13.991001 13.878001 # H TIP3
106 36 2 -1.048400 3.686000 8.353000 3.401000 # O TIP3
107 36 1 0.524200 4.494000 7.930000 3.084000 # H TIP3
108 36 1 0.524200 3.041000 7.727000 3.197000 # H TIP3
109 37 2 -1.048400 10.030001 11.441001 3.434000 # O TIP3
110 37 1 0.524200 9.274000 10.827000 3.422000 # H TIP3
111 37 1 0.524200 10.533000 11.362000 2.661000 # H TIP3
112 38 2 -1.048400 10.550001 9.544000 11.315001 # O TIP3
113 38 1 0.524200 10.055000 10.343000 11.396000 # H TIP3
114 38 1 0.524200 11.460000 9.846000 11.337000 # H TIP3
115 39 2 -1.048400 14.076000 7.326000 0.168000 # O TIP3
116 39 1 0.524200 13.312000 7.025001 -0.382000 # H TIP3
117 39 1 0.524200 14.759001 7.241001 -0.468000 # H TIP3
118 40 2 -1.048400 11.089000 10.807000 0.303000 # O TIP3
119 40 1 0.524200 11.763000 11.018000 -0.377000 # H TIP3
120 40 1 0.524200 11.657000 10.391001 0.980000 # H TIP3
121 41 2 -1.048400 13.068000 2.914000 10.149001 # O TIP3
122 41 1 0.524200 12.803000 2.473000 9.295000 # H TIP3
123 41 1 0.524200 14.010000 2.849000 10.112000 # H TIP3
124 42 2 -1.048400 5.450000 9.067000 5.337000 # O TIP3
125 42 1 0.524200 4.722000 8.840000 4.711000 # H TIP3
126 42 1 0.524200 4.939000 8.770000 6.117000 # H TIP3
127 43 2 -1.048400 6.844000 13.660001 0.195000 # O TIP3
128 43 1 0.524200 7.700000 13.479000 -0.298000 # H TIP3
129 43 1 0.524200 6.586000 14.545001 -0.038000 # H TIP3
130 44 2 -1.048400 6.857000 11.138000 6.829000 # O TIP3
131 44 1 0.524200 6.107000 11.750001 6.800000 # H TIP3
132 44 1 0.524200 6.480000 10.387000 6.353001 # H TIP3
133 45 2 -1.048400 12.113000 0.921000 4.942000 # O TIP3
134 45 1 0.524200 12.819000 0.635000 5.562000 # H TIP3
135 45 1 0.524200 11.814001 1.896000 5.223000 # H TIP3
136 46 2 -1.048400 2.421000 3.775000 5.058000 # O TIP3
137 46 1 0.524200 2.684000 2.934000 4.652000 # H TIP3
138 46 1 0.524200 3.219000 4.340000 5.048000 # H TIP3
139 47 2 -1.048400 11.518001 2.141000 14.835000 # O TIP3
140 47 1 0.524200 11.356000 2.769000 14.101000 # H TIP3
141 47 1 0.524200 12.345000 1.727000 14.583000 # H TIP3
142 48 2 -1.048400 5.141000 1.611000 0.499000 # O TIP3
143 48 1 0.524200 4.697000 1.110000 1.234000 # H TIP3
144 48 1 0.524200 6.031000 1.302000 0.586000 # H TIP3
145 49 2 -1.048400 2.509000 3.505000 12.910000 # O TIP3
146 49 1 0.524200 2.114000 4.138000 12.315001 # H TIP3
147 49 1 0.524200 2.715000 2.712000 12.383001 # H TIP3
148 50 2 -1.048400 5.461000 6.754000 1.943000 # O TIP3
149 50 1 0.524200 6.412000 6.627000 2.018000 # H TIP3
150 50 1 0.524200 5.209000 5.956000 1.434000 # H TIP3
151 51 2 -1.048400 11.780000 13.509001 0.983000 # O TIP3
152 51 1 0.524200 12.311000 13.422001 1.794000 # H TIP3
153 51 1 0.524200 12.379000 13.816000 0.300000 # H TIP3
154 52 2 -1.048400 13.410000 13.796000 3.206000 # O TIP3
155 52 1 0.524200 12.860001 13.342000 3.952000 # H TIP3
156 52 1 0.524200 14.378000 13.624000 3.486000 # H TIP3
157 53 2 -1.048400 7.314000 0.228000 9.152000 # O TIP3
158 53 1 0.524200 7.447000 0.196000 8.157000 # H TIP3
159 53 1 0.524200 8.219000 0.336000 9.426000 # H TIP3
160 54 2 -1.048400 0.289000 10.538000 13.468000 # O TIP3
161 54 1 0.524200 0.286000 10.937000 12.602000 # H TIP3
162 54 1 0.524200 1.262000 10.357000 13.669000 # H TIP3
163 55 2 -1.048400 12.440000 12.407000 5.370000 # O TIP3
164 55 1 0.524200 11.652001 11.887001 5.105000 # H TIP3
165 55 1 0.524200 12.893000 11.867000 5.977001 # H TIP3
166 56 2 -1.048400 6.968000 11.629000 2.353000 # O TIP3
167 56 1 0.524200 6.575000 10.896000 1.807000 # H TIP3
168 56 1 0.524200 7.083001 12.290000 1.590000 # H TIP3
169 57 2 -1.048400 13.533000 10.550001 7.160000 # O TIP3
170 57 1 0.524200 12.608000 10.309000 7.490000 # H TIP3
171 57 1 0.524200 14.008001 10.940000 7.925000 # H TIP3
172 58 2 -1.048400 10.963000 1.737000 11.790000 # O TIP3
173 58 1 0.524200 10.319000 2.240000 11.334000 # H TIP3
174 58 1 0.524200 11.709000 2.167000 11.210001 # H TIP3
175 59 2 -1.048400 14.776000 4.939000 12.443000 # O TIP3
176 59 1 0.524200 14.636001 5.952000 12.252001 # H TIP3
177 59 1 0.524200 13.865000 4.712000 12.604000 # H TIP3
178 60 2 -1.048400 7.529000 4.508000 1.396000 # O TIP3
179 60 1 0.524200 8.313000 4.582000 0.857000 # H TIP3
180 60 1 0.524200 6.783000 4.511000 0.768000 # H TIP3
181 61 2 -1.048400 11.200000 4.151000 3.471000 # O TIP3
182 61 1 0.524200 12.053001 4.360000 3.928000 # H TIP3
183 61 1 0.524200 10.572000 4.426000 4.138000 # H TIP3
184 62 2 -1.048400 4.884000 4.081000 13.713001 # O TIP3
185 62 1 0.524200 4.970000 4.746000 14.373001 # H TIP3
186 62 1 0.524200 3.932000 3.975000 13.593000 # H TIP3
187 63 2 -1.048400 13.867001 4.624000 3.954000 # O TIP3
188 63 1 0.524200 14.067000 4.641000 4.904000 # H TIP3
189 63 1 0.524200 14.122000 5.494000 3.648000 # H TIP3
190 64 2 -1.048400 3.174000 11.159000 5.954000 # O TIP3
191 64 1 0.524200 3.904000 11.073000 5.352001 # H TIP3
192 64 1 0.524200 3.204000 12.104000 6.129000 # H TIP3
193 65 2 -1.048400 14.269000 10.001000 4.369000 # O TIP3
194 65 1 0.524200 14.973001 10.528001 4.752000 # H TIP3
195 65 1 0.524200 13.690000 9.859000 5.092000 # H TIP3
196 66 2 -1.048400 12.273001 5.424000 10.404000 # O TIP3
197 66 1 0.524200 12.384000 4.472000 10.210000 # H TIP3
198 66 1 0.524200 13.153000 5.714001 10.501001 # H TIP3
199 67 2 -1.048400 3.117000 11.819000 10.070000 # O TIP3
200 67 1 0.524200 3.490000 12.496000 9.523000 # H TIP3
201 67 1 0.524200 3.937000 11.583000 10.539000 # H TIP3
202 68 2 -1.048400 10.050000 5.605000 5.758000 # O TIP3
203 68 1 0.524200 10.155000 6.554000 5.556001 # H TIP3
204 68 1 0.524200 10.797000 5.389000 6.309000 # H TIP3
205 69 2 -1.048400 7.881000 3.518000 5.700000 # O TIP3
206 69 1 0.524200 8.550000 4.225000 5.812000 # H TIP3
207 69 1 0.524200 7.070000 3.834000 6.169000 # H TIP3
208 70 2 -1.048400 8.559000 3.515000 11.535000 # O TIP3
209 70 1 0.524200 8.435000 4.298000 12.155000 # H TIP3
210 70 1 0.524200 7.955000 2.899000 11.952000 # H TIP3
211 71 2 -1.048400 13.039000 10.511000 11.777000 # O TIP3
212 71 1 0.524200 13.825001 10.589000 11.282000 # H TIP3
213 71 1 0.524200 12.883000 11.473000 11.916000 # H TIP3
214 72 2 -1.048400 8.400000 5.552001 13.557000 # O TIP3
215 72 1 0.524200 9.070000 5.240000 14.185000 # H TIP3
216 72 1 0.524200 7.739000 5.945000 14.163000 # H TIP3
217 73 2 -1.048400 13.870000 7.474000 12.187000 # O TIP3
218 73 1 0.524200 13.209000 8.073000 12.633000 # H TIP3
219 73 1 0.524200 14.457001 8.029000 11.659001 # H TIP3
220 74 2 -1.048400 9.016000 4.086000 8.814000 # O TIP3
221 74 1 0.524200 9.377000 5.001000 8.813000 # H TIP3
222 74 1 0.524200 8.726000 3.741000 9.661000 # H TIP3
223 75 2 -1.048400 6.439000 5.144000 7.455000 # O TIP3
224 75 1 0.524200 7.310000 4.836000 7.837000 # H TIP3
225 75 1 0.524200 6.121000 5.819000 8.116000 # H TIP3
226 76 2 -1.048400 12.076000 4.645000 13.566000 # O TIP3
227 76 1 0.524200 12.000000 5.522000 13.148001 # H TIP3
228 76 1 0.524200 11.827001 4.835000 14.443001 # H TIP3
229 77 2 -1.048400 11.316000 2.273000 7.956000 # O TIP3
230 77 1 0.524200 11.391000 1.358000 8.151000 # H TIP3
231 77 1 0.524200 10.423001 2.479000 8.181000 # H TIP3
232 78 2 -1.048400 10.407000 6.649000 8.888000 # O TIP3
233 78 1 0.524200 9.810000 7.215000 9.386000 # H TIP3
234 78 1 0.524200 11.077000 6.417000 9.547000 # H TIP3
235 79 2 -1.048400 14.036001 7.730000 6.644001 # O TIP3
236 79 1 0.524200 14.358000 7.138000 7.346000 # H TIP3
237 79 1 0.524200 13.886000 8.589000 7.123000 # H TIP3
238 80 2 -1.048400 8.900000 7.310000 11.290001 # O TIP3
239 80 1 0.524200 8.739000 6.706000 12.078000 # H TIP3
240 80 1 0.524200 9.555000 8.003000 11.531000 # H TIP3
241 81 2 -1.048400 9.495000 14.416000 1.979000 # O TIP3
242 81 1 0.524200 10.354000 14.203000 1.548000 # H TIP3
243 81 1 0.524200 9.165000 13.566000 2.099000 # H TIP3
244 82 2 -1.048400 12.414000 9.004000 13.909000 # O TIP3
245 82 1 0.524200 11.523000 8.931000 14.184000 # H TIP3
246 82 1 0.524200 12.375001 9.766000 13.286000 # H TIP3
247 83 2 -1.048400 3.080000 0.949000 11.788000 # O TIP3
248 83 1 0.524200 3.690000 0.500000 11.172000 # H TIP3
249 83 1 0.524200 2.196000 0.556000 11.641001 # H TIP3
250 84 2 -1.048400 6.255000 9.802000 0.364000 # O TIP3
251 84 1 0.524200 6.954000 9.121000 0.671000 # H TIP3
252 84 1 0.524200 5.459001 9.264000 0.196000 # H TIP3
253 85 2 -1.048400 6.140000 3.669000 3.704000 # O TIP3
254 85 1 0.524200 6.732000 3.837000 2.949000 # H TIP3
255 85 1 0.524200 6.807000 3.408000 4.378000 # H TIP3
256 86 2 -1.048400 5.150001 11.685000 11.994000 # O TIP3
257 86 1 0.524200 5.312000 12.641000 12.020000 # H TIP3
258 86 1 0.524200 5.614000 11.405000 12.778000 # H TIP3
259 87 2 -1.048400 0.545000 12.593001 4.672000 # O TIP3
260 87 1 0.524200 1.230000 12.665000 5.318000 # H TIP3
261 87 1 0.524200 -0.240000 12.480000 5.232000 # H TIP3
262 88 2 -1.048400 2.179000 13.464001 7.177000 # O TIP3
263 88 1 0.524200 2.719000 14.061001 7.737000 # H TIP3
264 88 1 0.524200 1.640000 13.021001 7.843000 # H TIP3
265 89 2 -1.048400 0.688000 2.781000 7.114000 # O TIP3
266 89 1 0.524200 1.488000 3.190000 6.703000 # H TIP3
267 89 1 0.524200 0.053000 3.429000 6.930000 # H TIP3
268 90 2 -1.048400 0.140000 0.671000 14.403000 # O TIP3
269 90 1 0.524200 0.202000 -0.303000 14.276000 # H TIP3
270 90 1 0.524200 1.125000 0.843000 14.642000 # H TIP3
271 91 2 -1.048400 0.449000 7.366000 9.140000 # O TIP3
272 91 1 0.524200 0.202000 6.479001 9.095000 # H TIP3
273 91 1 0.524200 0.796000 7.563000 8.256000 # H TIP3
274 92 2 -1.048400 0.913000 12.320000 0.937000 # O TIP3
275 92 1 0.524200 0.623000 11.700000 0.268000 # H TIP3
276 92 1 0.524200 1.290000 11.784000 1.628000 # H TIP3
277 93 2 -1.048400 3.406000 0.117000 14.493000 # O TIP3
278 93 1 0.524200 3.348000 0.244000 13.546000 # H TIP3
279 93 1 0.524200 4.378000 0.190000 14.724001 # H TIP3
280 94 2 -1.048400 2.278000 3.922000 1.200000 # O TIP3
281 94 1 0.524200 2.701000 3.392000 0.560000 # H TIP3
282 94 1 0.524200 1.556000 3.406000 1.415000 # H TIP3
283 95 2 -1.048400 1.312000 13.577000 13.829001 # O TIP3
284 95 1 0.524200 1.594000 13.350000 12.963000 # H TIP3
285 95 1 0.524200 0.905000 14.443001 13.634000 # H TIP3
286 96 2 -1.048400 3.438000 8.099000 0.316000 # O TIP3
287 96 1 0.524200 2.547000 7.847000 0.577000 # H TIP3
288 96 1 0.524200 3.889000 7.775001 1.093000 # H TIP3
289 97 2 -1.048400 1.562000 6.536000 12.239000 # O TIP3
290 97 1 0.524200 0.960000 7.250000 12.049000 # H TIP3
291 97 1 0.524200 1.197000 5.827000 11.553000 # H TIP3
292 98 2 -1.048400 1.314000 9.385000 7.173000 # O TIP3
293 98 1 0.524200 1.333000 8.706000 6.444000 # H TIP3
294 98 1 0.524200 2.056000 9.953000 6.980000 # H TIP3
295 99 2 -1.048400 7.572000 0.420000 3.478000 # O TIP3
296 99 1 0.524200 7.636001 0.339000 2.503000 # H TIP3
297 99 1 0.524200 6.628000 0.234000 3.530000 # H TIP3
298 100 2 -1.048400 1.133000 7.080000 5.078001 # O TIP3
299 100 1 0.524200 1.201000 7.102000 4.137000 # H TIP3
300 100 1 0.524200 0.358000 6.549000 5.302000 # H TIP3
301 101 2 -1.048400 5.279000 5.755000 11.457000 # O TIP3
302 101 1 0.524200 4.504000 5.333000 10.967001 # H TIP3
303 101 1 0.524200 5.564000 4.986000 12.019000 # H TIP3
304 102 2 -1.048400 7.834000 14.408001 7.527000 # O TIP3
305 102 1 0.524200 7.105000 14.717001 6.993000 # H TIP3
306 102 1 0.524200 8.194000 13.714000 6.926000 # H TIP3
307 103 2 -1.048400 0.675000 11.574000 10.952000 # O TIP3
308 103 1 0.524200 1.597000 11.546000 10.574001 # H TIP3
309 103 1 0.524200 0.265000 12.150001 10.339001 # H TIP3
310 104 2 -1.048400 2.915000 14.197001 3.393000 # O TIP3
311 104 1 0.524200 2.155000 14.414000 3.916000 # H TIP3
312 104 1 0.524200 2.719000 13.333000 3.011000 # H TIP3
313 105 2 -1.048400 8.578000 0.832000 6.351000 # O TIP3
314 105 1 0.524200 7.928000 0.530000 5.693000 # H TIP3
315 105 1 0.524200 8.563000 1.801000 6.335001 # H TIP3
316 106 2 -1.048400 7.287001 10.172000 13.815001 # O TIP3
317 106 1 0.524200 6.631000 9.473000 14.077000 # H TIP3
318 106 1 0.524200 8.119000 9.669000 13.852000 # H TIP3
319 107 3 1.000000 0. 0. 0. # Na
320 108 4 -1.000000 5. 5. 5. # Cl

 Bonds

1 1 1 2
2 1 1 3
3 1 4 5
4 1 4 6
5 1 7 8
6 1 7 9
7 1 10 11
8 1 10 12
9 1 13 14
10 1 13 15
11 1 16 18
12 1 16 17
13 1 19 20
14 1 19 21
15 1 22 23
16 1 22 24
17 1 25 27
18 1 25 26
19 1 28 29
20 1 28 30
21 1 31 33
22 1 31 32
23 1 34 35
24 1 34 36
25 1 37 38
26 1 37 39
27 1 40 42
28 1 40 41
29 1 43 45
30 1 43 44
31 1 46 48
32 1 46 47
33 1 49 50
34 1 49 51
35 1 52 54
36 1 52 53
37 1 55 57
38 1 55 56
39 1 58 59
40 1 58 60
41 1 61 62
42 1 61 63
43 1 64 65
44 1 64 66
45 1 67 69
46 1 67 68
47 1 70 72
48 1 70 71
49 1 73 75
50 1 73 74
51 1 76 77
52 1 76 78
53 1 79 81
54 1 79 80
55 1 82 83
56 1 82 84
57 1 85 86
58 1 85 87
59 1 88 90
60 1 88 89
61 1 91 92
62 1 91 93
63 1 94 96
64 1 94 95
65 1 97 98
66 1 97 99
67 1 100 102
68 1 100 101
69 1 103 105
70 1 103 104
71 1 106 108
72 1 106 107
73 1 109 110
74 1 109 111
75 1 112 114
76 1 112 113
77 1 115 117
78 1 115 116
79 1 118 119
80 1 118 120
81 1 121 122
82 1 121 123
83 1 124 125
84 1 124 126
85 1 127 129
86 1 127 128
87 1 130 132
88 1 130 131
89 1 133 134
90 1 133 135
91 1 136 137
92 1 136 138
93 1 139 141
94 1 139 140
95 1 142 144
96 1 142 143
97 1 145 147
98 1 145 146
99 1 148 150
100 1 148 149
101 1 151 153
102 1 151 152
103 1 154 155
104 1 154 156
105 1 157 159
106 1 157 158
107 1 160 161
108 1 160 162
109 1 163 165
110 1 163 164
111 1 166 167
112 1 166 168
113 1 169 171
114 1 169 170
115 1 172 174
116 1 172 173
117 1 175 177
118 1 175 176
119 1 178 179
120 1 178 180
121 1 181 183
122 1 181 182
123 1 184 185
124 1 184 186
125 1 187 189
126 1 187 188
127 1 190 192
128 1 190 191
129 1 193 195
130 1 193 194
131 1 196 197
132 1 196 198
133 1 199 200
134 1 199 201
135 1 202 203
136 1 202 204
137 1 205 206
138 1 205 207
139 1 208 210
140 1 208 209
141 1 211 213
142 1 211 212
143 1 214 216
144 1 214 215
145 1 217 218
146 1 217 219
147 1 220 221
148 1 220 222
149 1 223 224
150 1 223 225
151 1 226 227
152 1 226 228
153 1 229 231
154 1 229 230
155 1 232 234
156 1 232 233
157 1 235 237
158 1 235 236
159 1 238 240
160 1 238 239
161 1 241 243
162 1 241 242
163 1 244 245
164 1 244 246
165 1 247 248
166 1 247 249
167 1 250 252
168 1 250 251
169 1 253 254
170 1 253 255
171 1 256 257
172 1 256 258
173 1 259 261
174 1 259 260
175 1 262 263
176 1 262 264
177 1 265 267
178 1 265 266
179 1 268 269
180 1 268 270
181 1 271 273
182 1 271 272
183 1 274 275
184 1 274 276
185 1 277 279
186 1 277 278
187 1 280 281
188 1 280 282
189 1 283 284
190 1 283 285
191 1 286 287
192 1 286 288
193 1 289 290
194 1 289 291
195 1 292 293
196 1 292 294
197 1 295 297
198 1 295 296
199 1 298 299
200 1 298 300
201 1 301 303
202 1 301 302
203 1 304 306
204 1 304 305
205 1 307 308
206 1 307 309
207 1 310 311
208 1 310 312
209 1 313 315
210 1 313 314
211 1 316 318
212 1 316 317

 Angles

1 1 2 1 3
2 1 5 4 6
3 1 8 7 9
4 1 11 10 12
5 1 14 13 15
6 1 17 16 18
7 1 20 19 21
8 1 23 22 24
9 1 26 25 27
10 1 29 28 30
11 1 32 31 33
12 1 35 34 36
13 1 38 37 39
14 1 41 40 42
15 1 44 43 45
16 1 47 46 48
17 1 50 49 51
18 1 53 52 54
19 1 56 55 57
20 1 59 58 60
21 1 62 61 63
22 1 65 64 66
23 1 68 67 69
24 1 71 70 72
25 1 74 73 75
26 1 77 76 78
27 1 80 79 81
28 1 83 82 84
29 1 86 85 87
30 1 89 88 90
31 1 92 91 93
32 1 95 94 96
33 1 98 97 99
34 1 101 100 102
35 1 104 103 105
36 1 107 106 108
37 1 110 109 111
38 1 113 112 114
39 1 116 115 117
40 1 119 118 120
41 1 122 121 123
42 1 125 124 126
43 1 128 127 129
44 1 131 130 132
45 1 134 133 135
46 1 137 136 138
47 1 140 139 141
48 1 143 142 144
49 1 146 145 147
50 1 149 148 150
51 1 152 151 153
52 1 155 154 156
53 1 158 157 159
54 1 161 160 162
55 1 164 163 165
56 1 167 166 168
57 1 170 169 171
58 1 173 172 174
59 1 176 175 177
60 1 179 178 180
61 1 182 181 183
62 1 185 184 186
63 1 188 187 189
64 1 191 190 192
65 1 194 193 195
66 1 197 196 198
67 1 200 199 201
68 1 203 202 204
69 1 206 205 207
70 1 209 208 210
71 1 212 211 213
72 1 215 214 216
73 1 218 217 219
74 1 221 220 222
75 1 224 223 225
76 1 227 226 228
77 1 230 229 231
78 1 233 232 234
79 1 236 235 237
80 1 239 238 240
81 1 242 241 243
82 1 245 244 246
83 1 248 247 249
84 1 251 250 252
85 1 254 253 255
86 1 257 256 258
87 1 260 259 261
88 1 263 262 264
89 1 266 265 267
90 1 269 268 270
91 1 272 271 273
92 1 275 274 276
93 1 278 277 279
94 1 281 280 282
95 1 284 283 285
96 1 287 286 288
97 1 290 289 291
98 1 293 292 294
99 1 296 295 297
100 1 299 298 300
101 1 302 301 303
102 1 305 304 306
103 1 308 307 309
104 1 311 310 312
105 1 314 313 315
106 1 317 316 318

