website: https://www.scd.stfc.ac.uk/Pages/DL_POLY.aspx

notes: 

install: Information on how to use and install PLUMED with DLPOLY can be found in <a href="ftp://ftp.dl.ac.uk/ccp5/DL_POLY/DL_POLY_4.0/DOCUMENTS/USRMAN4.pdf"> the dl_poly manual</a>.  
