500
Atoms. Timestep: 0
Xe 0.024598 24.63 0.520655
Xe 0.171429 2.8939 2.52261
Xe 2.5328 0.386652 2.48407
Xe 2.70223 3.09538 0.413823
Xe 5.09847 24.5346 24.7666
Xe 4.87248 2.57885 2.6727
Xe 7.55588 24.6518 2.32135
Xe 7.60562 2.76285 0.0061413
Xe 10.3779 24.6557 0.0631774
Xe 9.95953 2.39447 2.21756
Xe 12.6017 24.4668 2.49343
Xe 12.1563 3.49747 0.0275634
Xe 14.6694 0.436592 0.099556
Xe 14.5231 2.76678 2.68821
Xe 17.8107 0.108969 2.54926
Xe 17.3296 2.61875 0.538545
Xe 19.8277 24.6833 0.451452
Xe 20.0406 2.80025 2.91567
Xe 22.6534 0.515119 2.69919
Xe 22.5592 3.03826 0.304227
Xe 0.188912 5.16995 0.0534598
Xe 0.299882 7.64428 2.59236
Xe 2.85941 4.9978 2.64825
Xe 2.95402 7.4744 0.343292
Xe 5.06236 4.99785 24.5775
Xe 4.99669 7.61251 3.27848
Xe 7.2839 5.11926 2.68388
Xe 7.25595 7.73226 0.199056
Xe 9.78176 5.20669 24.3766
Xe 10.0822 7.28207 2.42126
Xe 12.1889 5.03101 3.01665
Xe 11.8127 7.81025 24.5379
Xe 14.8329 5.20249 0.00624815
Xe 14.1971 7.19721 2.84713
Xe 17.1604 5.09689 2.43709
Xe 17.0333 7.79836 0.0170806
Xe 19.7881 5.12808 0.236244
Xe 19.6026 8.22813 2.1245
Xe 22.2094 5.35811 2.70621
Xe 22.5169 7.55496 24.7638
Xe 0.132117 9.19103 24.3818
Xe 0.0385624 12.0986 2.94629
Xe 2.20213 9.96632 1.91643
Xe 2.36488 12.5814 24.4726
Xe 4.58496 10.0134 24.2463
Xe 4.70311 12.0777 1.92348
Xe 7.27515 9.76311 2.5086
Xe 7.52212 12.6499 24.7054
Xe 9.81163 10.2834 0.0647574
Xe 9.60651 12.9025 2.60701
Xe 12.0734 9.83878 2.99927
Xe 12.0204 12.4059 0.23644
Xe 14.3305 9.97449 0.0200071
Xe 14.4407 12.1999 2.34587
Xe 17.2957 10.459 2.43613
Xe 17.3825 12.9977 0.0300996
Xe 19.7009 10.485 24.6033
Xe 20.1649 12.4617 2.15407
Xe 22.5624 9.78048 2.35889
Xe 22.174 12.4073 24.7962
Xe -0.0160895 14.7227 0.176804
Xe 0.370268 17.27 2.28333
Xe 2.84513 14.9799 1.98762
Xe 2.60674 17.2333 24.3808
Xe 5.37774 14.8914 24.7048
Xe 4.91575 17.3983 2.62477
Xe 7.12415 14.9163 2.66534
Xe 7.62806 17.4692 0.182315
Xe 9.73051 15.1207 0.210006
Xe 9.43578 17.0792 2.68194
Xe 11.9165 15.1196 2.46827
Xe 12.2876 17.7909 24.7293
Xe 14.2625 15.1624 0.135886
Xe 14.6393 17.2711 2.78247
Xe 17.7741 15.0169 2.59156
Xe 17.0975 16.3458 24.5608
Xe 20.1618 14.9835 24.5592
Xe 19.7848 17.2033 1.92708
Xe 22.7659 15.0699 2.41698
Xe 22.591 17.3627 24.5954
Xe 24.6507 19.9645 0.12829
Xe 0.291778 22.0033 2.8924
Xe 2.71147 19.6753 2.57032
Xe 2.48363 22.1807 0.312867
Xe 4.97754 19.5237 24.4241
Xe 4.81958 22.7206 2.65061
Xe 7.30734 20.2183 2.09232
Xe 8.17734 22.5107 24.3984
Xe 9.73532 19.6116 0.0397235
Xe 9.93472 21.9634 2.33015
Xe 12.5812 19.6369 2.63846
Xe 12.4353 22.0013 0.0794005
Xe 15.511 19.4106 24.4664
Xe 14.8279 22.0269 2.03853
Xe 17.2437 20.0194 2.38782
Xe 17.0725 22.6291 0.101515
Xe 19.4762 19.9052 24.7777
Xe 20.1072 21.7855 2.84416
Xe 22.825 19.4847 2.81246
Xe 22.4872 21.9967 0.0444839
Xe 0.164698 0.36098 4.87948
Xe 24.6522 2.04012 7.57729
Xe 2.59942 0.138187 7.59269
Xe 2.39682 2.46894 5.32176
Xe 4.98143 0.391118 5.51662
Xe 5.17281 2.45811 7.64237
Xe 7.76882 24.6766 7.38041
Xe 7.70664 2.62999 4.46236
Xe 9.81849 0.261276 4.78548
Xe 9.63998 2.37441 7.12185
Xe 12.1615 0.17801 7.53763
Xe 12.6599 1.97501 4.93652
Xe 15.1772 0.239846 4.55367
Xe 14.6911 2.20142 7.10267
Xe 17.3367 0.229249 7.03808
Xe 17.2099 2.49837 4.93176
Xe 20.1365 24.3188 4.77992
Xe 20.0377 2.34442 6.79693
Xe 22.3678 24.6223 7.45518
Xe 22.4327 2.81976 4.98205
Xe -0.0220254 5.36982 4.91703
Xe 0.0814265 7.32253 7.57612
Xe 2.47989 4.92348 7.46087
Xe 2.28017 7.9208 5.00535
Xe 5.08731 4.4432 5.4582
Xe 4.96966 7.32838 7.34013
Xe 7.43263 4.99339 7.57668
Xe 7.60533 7.46163 5.27608
Xe 9.69706 5.1642 5.07201
Xe 10.3221 7.54051 7.46215
Xe 12.4642 4.34741 7.85949
Xe 11.983 7.89041 4.98116
Xe 14.7483 4.94938 5.51701
Xe 14.6125 7.40079 7.31969
Xe 17.3 5.27711 7.16946
Xe 17.6087 8.01759 4.3272
Xe 19.5711 5.68942 4.93032
Xe 19.631 7.6627 7.61282
Xe 21.7472 5.28524 7.459
Xe 22.3061 7.78123 4.65634
Xe 24.6409 9.79282 5.15044
Xe 0.407725 12.2161 7.0322
Xe 2.45282 9.80384 7.59685
Xe 3.02427 12.0766 4.53426
Xe 4.85697 9.92217 5.43321
Xe 4.79807 12.7248 7.43677
Xe 7.19088 10.1525 7.66634
Xe 6.65908 12.1102 4.63186
Xe 9.51647 10.4979 5.43892
Xe 9.70844 12.536 7.73089
Xe 12.3713 10.299 7.54966
Xe 12.3883 12.6453 4.76168
Xe 14.8185 10.1699 4.90197
Xe 14.817 12.55 7.41904
Xe 16.8792 9.73045 6.85449
Xe 17.6455 12.3919 4.81361
Xe 20.0353 10.0596 4.85836
Xe 20.1684 12.5252 7.5689
Xe 22.3768 10.0814 7.23205
Xe 22.0028 12.4188 4.82876
Xe 0.0741703 15.3943 4.87475
Xe 0.0604552 17.1799 7.96412
Xe 2.30047 14.723 7.53502
Xe 2.88774 17.5292 5.30173
Xe 4.80378 14.6689 4.71801
Xe 5.06972 17.2527 7.81313
Xe 7.06775 14.905 7.77784
Xe 7.36866 17.1637 5.3794
Xe 9.3381 14.4814 5.37613
Xe 10.0461 16.9406 7.67426
Xe 12.164 14.546 7.72013
Xe 12.284 16.8151 5.25178
Xe 14.9714 14.8929 4.72065
Xe 15.024 17.2057 7.67289
Xe 17.8012 14.8148 7.13952
Xe 17.1249 17.4811 4.90658
Xe 19.9903 15.1706 4.46002
Xe 19.7754 17.2002 7.70925
Xe 23.2924 14.8206 7.63487
Xe 22.5627 17.2408 5.24788
Xe 0.178441 19.1209 5.15404
Xe 0.189104 22.0259 7.05095
Xe 2.84053 19.9803 7.61165
Xe 3.00105 21.8347 5.20925
Xe 5.43026 19.5526 5.02167
Xe 5.41567 22.679 7.30989
Xe 7.89599 19.5229 7.56493
Xe 7.39473 22.3671 4.71818
Xe 9.87167 19.2771 4.76839
Xe 9.92049 21.741 6.95846
Xe 12.27 19.456 7.48215
Xe 12.4265 22.0657 4.82317
Xe 14.9162 19.6955 5.24661
Xe 14.8548 22.0235 7.25528
Xe 17.0802 19.843 7.57003
Xe 17.4901 22.0812 5.00893
Xe 19.963 18.819 4.88505
Xe 20.156 22.3675 7.20574
Xe 22.2834 19.5642 7.03579
Xe 22.3445 22.1018 4.73695
Xe 24.7441 24.5724 9.63797
Xe 24.4833 2.13094 12.2078
Xe 2.12986 24.4992 12.3007
Xe 2.23051 2.61892 10.2087
Xe 5.15651 24.6519 9.70428
Xe 4.96707 2.7039 12.3032
Xe 7.10192 24.4068 12.5554
Xe 7.2073 2.69328 10.1585
Xe 9.75871 0.587019 10.1177
Xe 10.3259 2.75356 12.4258
Xe 13.0877 24.3044 11.9365
Xe 12.6944 2.42846 10.2803
Xe 14.8628 24.3708 9.50003
Xe 14.9184 2.47398 12.574
Xe 17.4461 24.6195 12.0809
Xe 17.0611 2.40658 9.91619
Xe 19.6951 0.152588 9.16825
Xe 19.6897 2.89037 12.1823
Xe 21.3535 24.5333 12.1348
Xe 22.1987 2.5766 10.1475
Xe 24.4377 4.69635 9.71096
Xe 0.0294892 7.6457 12.158
Xe 2.39172 4.99526 12.3066
Xe 2.40888 7.17989 9.994
Xe 5.06266 5.04542 9.59547
Xe 4.89645 7.66638 12.6588
Xe 7.43957 5.1934 12.2706
Xe 7.27452 7.90055 10.4851
Xe 10.1498 4.76944 9.69214
Xe 9.96637 7.08721 12.2681
Xe 12.6115 4.90252 12.9097
Xe 12.6486 7.26004 9.68795
Xe 15.0586 4.93643 9.84175
Xe 14.8472 7.49942 12.1566
Xe 17.4581 4.94326 12.5695
Xe 16.813 7.50639 9.59423
Xe 19.8999 5.06478 9.84621
Xe 19.3358 7.39645 12.2539
Xe 22.4468 5.0041 12.2551
Xe 22.2833 7.55348 9.74503
Xe 0.0844839 10.2436 9.66044
Xe 0.111731 12.0088 12.5017
Xe 2.39325 9.67816 12.723
Xe 2.95333 12.1319 10.1566
Xe 4.7066 9.56476 10.1014
Xe 4.99801 12.7129 12.9031
Xe 7.11433 9.72216 12.7934
Xe 6.78044 12.4609 10.0503
Xe 9.87671 9.77448 10.0761
Xe 9.87162 12.0541 12.125
Xe 12.2612 9.64025 12.1128
Xe 12.4483 12.7039 10.1198
Xe 14.7766 10.4955 10.1736
Xe 14.5102 12.3763 12.9686
Xe 17.5898 9.71488 11.941
Xe 17.2012 12.5604 9.79367
Xe 19.6099 10.1548 9.58854
Xe 19.6654 12.2836 12.5679
Xe 22.6607 9.63251 12.3439
Xe 22.2923 12.2985 9.73015
Xe 0.0151156 13.9835 10.1951
Xe 0.150026 16.7176 12.0306
Xe 2.52275 14.6502 12.7445
Xe 2.18556 16.8833 9.85476
Xe 4.73484 14.7117 10.3323
Xe 4.72239 17.3752 12.0756
Xe 7.16652 15.2576 13.0697
Xe 7.33911 16.989 10.4536
Xe 9.93671 14.8 10.2404
Xe 9.9467 17.6415 12.7053
Xe 12.6054 14.8479 12.6867
Xe 12.4255 17.4539 10.1191
Xe 14.6721 14.7328 10.4241
Xe 14.9824 17.2687 12.5843
Xe 17.2052 14.9574 12.4489
Xe 17.5672 17.2736 9.77835
Xe 19.9356 14.7588 9.93713
Xe 19.8708 17.3155 11.8057
Xe 22.1413 14.7325 11.9645
Xe 22.5299 17.1347 9.80684
Xe 24.5163 19.5843 9.95281
Xe 24.5419 22.0233 12.3005
Xe 2.41054 19.3258 12.1937
Xe 2.38874 22.3194 9.83452
Xe 5.19783 20.1148 9.60513
Xe 4.68362 22.4204 12.3332
Xe 7.15485 20.023 12.7276
Xe 7.957 22.2359 9.93017
Xe 9.82778 19.7256 10.157
Xe 9.96467 22.3833 12.496
Xe 12.8332 19.769 12.8378
Xe 12.2816 21.8414 10.0632
Xe 14.7693 19.7391 9.87132
Xe 15.429 21.8488 12.543
Xe 17.3137 19.4204 12.0436
Xe 17.5433 22.794 9.41819
Xe 19.9811 19.9275 9.4284
Xe 19.7732 21.7608 12.1257
Xe 22.2333 19.8513 12.112
Xe 22.0181 22.1757 9.49981
Xe 24.701 24.3298 14.5439
Xe 0.00783162 2.36955 17.4691
Xe 2.45285 0.108238 17.366
Xe 1.70436 2.39464 14.5181
Xe 4.84544 0.429021 14.7866
Xe 5.16119 2.80198 17.2831
Xe 7.61655 0.635945 17.7003
Xe 7.60859 2.76764 14.6869
Xe 9.82066 0.169772 14.5959
Xe 10.0096 2.44026 16.7705
Xe 12.1546 24.6509 17.2737
Xe 12.7843 1.88881 14.6302
Xe 15.2097 24.3336 14.7355
Xe 14.7742 2.0155 17.1515
Xe 17.4333 0.0863861 17.4043
Xe 17.0924 2.38596 14.7609
Xe 20.205 0.703336 14.9191
Xe 19.5733 2.62634 17.341
Xe 22.2898 0.405239 17.417
Xe 22.8809 2.56343 14.9415
Xe -0.0492034 5.02322 14.3923
Xe 0.244285 6.89313 17.4836
Xe 2.4725 4.36256 16.8864
Xe 2.4806 7.26591 15.2221
Xe 4.96983 4.57869 14.7874
Xe 5.0255 6.87906 17.1457
Xe 7.61071 4.58212 17.2147
Xe 7.41655 7.10495 14.9565
Xe 9.9197 5.01141 14.613
Xe 9.8313 7.45472 17.1798
Xe 11.9824 4.84964 17.3916
Xe 12.4803 7.75701 15.2456
Xe 14.8969 5.4275 15.3429
Xe 14.939 8.01598 17.1728
Xe 17.3415 5.05622 17.3621
Xe 17.4399 7.4771 14.7364
Xe 19.5835 4.90782 14.8184
Xe 20.1061 7.38442 17.8293
Xe 22.2146 4.69711 17.6051
Xe 21.927 7.2914 15.1253
Xe 24.675 9.20705 14.7132
Xe 24.6223 12.3811 16.9918
Xe 2.09876 10.1783 17.4258
Xe 1.99157 12.3486 15.135
Xe 4.7692 9.84704 15.2075
Xe 4.32284 12.254 17.5012
Xe 8.00588 10.0886 17.0579
Xe 7.86724 12.1351 14.6037
Xe 9.70003 9.43247 14.1966
Xe 10.2263 12.5091 17.3115
Xe 12.3731 10.0106 17.891
Xe 11.9422 12.0368 14.7184
Xe 14.6352 9.75386 14.5376
Xe 14.9929 12.0437 17.2885
Xe 17.2695 10.0149 17.7795
Xe 17.4665 12.2005 14.8853
Xe 19.5901 9.62905 15.2832
Xe 20.2272 12.2303 17.3925
Xe 22.8094 9.59205 16.9864
Xe 22.1503 12.1084 14.5639
Xe 24.0174 14.558 14.9131
Xe 24.6741 17.2617 17.3673
Xe 2.05743 14.6968 17.6816
Xe 1.59594 16.6783 15.1998
Xe 4.77993 14.7478 15.6004
Xe 4.69507 17.7874 17.0159
Xe 7.63454 14.5868 17.2541
Xe 7.41048 17.598 14.8391
Xe 9.99243 15.1038 15.0677
Xe 10.0637 17.487 17.4744
Xe 12.298 15.278 17.7568
Xe 12.3394 17.3709 14.7581
Xe 14.8922 15.0211 15.1186
Xe 14.9901 17.656 17.327
Xe 17.5583 14.7545 17.5475
Xe 17.8611 16.7737 15.0317
Xe 20.0944 14.7506 14.9976
Xe 20.336 17.4696 17.3718
Xe 22.1672 14.7653 17.567
Xe 22.5705 17.4031 14.2952
Xe 24.6344 19.8819 14.5302
Xe 24.679 22.5232 17.1414
Xe 2.2107 19.6897 16.7962
Xe 2.3474 22.3325 14.7385
Xe 4.68344 19.4893 14.6217
Xe 4.52312 22.1049 17.1328
Xe 7.0736 19.9718 18.0887
Xe 6.83379 22.1761 15.1664
Xe 9.81789 19.879 15.1364
Xe 9.74932 22.3238 17.198
Xe 12.7301 20.0785 17.2517
Xe 12.7458 22.0752 14.63
Xe 15.4665 19.8757 14.9194
Xe 14.5634 22.7987 17.597
Xe 17.6465 20.2543 17.6216
Xe 17.9187 22.4955 14.8817
Xe 19.5804 19.7612 14.3785
Xe 19.8388 22.4152 17.6178
Xe 22.5084 19.9442 17.2086
Xe 22.0363 22.2946 14.8792
Xe 24.8453 0.345182 19.975
Xe 0.056249 3.09296 22.7899
Xe 2.18044 0.112176 22.86
Xe 2.39582 2.39677 19.9422
Xe 4.70937 24.6013 19.7683
Xe 4.77353 2.30983 22.3524
Xe 7.57894 0.513351 22.6832
Xe 7.06068 2.35231 20.1483
Xe 9.94893 0.391676 19.6111
Xe 10.0685 2.36372 22.0923
Xe 12.4779 0.2361 22.6969
Xe 12.5419 2.28369 19.9335
Xe 15.1267 0.418675 20.3556
Xe 14.8457 3.04459 22.3557
Xe 17.795 0.397227 22.8897
Xe 17.7704 2.93619 19.839
Xe 20.0113 0.420486 20.1848
Xe 19.8699 2.65419 22.6936
Xe 21.9762 0.372311 23.107
Xe 22.4507 2.31939 20.5878
Xe 0.24882 4.71037 20.0023
Xe -0.0429796 7.04734 21.8137
Xe 2.87659 4.94473 22.4139
Xe 2.63462 7.06906 19.3341
Xe 4.94054 4.76259 19.7469
Xe 5.09203 7.16735 21.8231
Xe 7.59348 4.81236 22.1676
Xe 7.78858 7.35418 19.6013
Xe 9.82337 4.9144 19.8828
Xe 9.55292 7.91632 22.4892
Xe 12.4081 5.57556 21.8456
Xe 12.3577 7.41928 19.4369
Xe 14.8196 4.83022 19.4106
Xe 14.8236 7.60664 22.0863
Xe 17.3436 5.05378 22.5427
Xe 17.1283 7.29644 19.7065
Xe 19.7562 5.22785 20.3152
Xe 19.413 7.71692 22.4785
Xe 22.181 5.39664 22.7858
Xe 22.6807 6.72634 19.9071
Xe -0.0238956 9.48134 19.7561
Xe 24.7897 12.1295 22.6786
Xe 2.64942 9.32393 22.1425
Xe 2.21688 12.3124 20.3739
Xe 4.93651 9.36663 19.4477
Xe 4.92266 12.5004 21.6421
Xe 7.10722 9.9315 22.3565
Xe 7.64174 12.6011 19.895
Xe 9.78295 10.1792 19.9733
Xe 10.1107 12.7014 22.6604
Xe 12.3463 9.93545 22.4893
Xe 12.9735 12.6151 20.2373
Xe 15.0761 10.42 20.0516
Xe 14.6352 12.3528 22.6806
Xe 17.1452 10.0892 22.7842
Xe 17.8663 12.6572 19.7393
Xe 20.075 9.89982 19.8828
Xe 20.175 12.5389 22.0706
Xe 22.4546 9.40768 22.5616
Xe 22.7128 12.3282 19.6386
Xe 24.8133 15.0993 19.9744
Xe 0.256301 18.0105 22.1126
Xe 2.31102 15.0145 22.2137
Xe 3.17234 17.2587 19.7197
Xe 5.17902 14.698 19.2108
Xe 5.0253 17.1823 22.3375
Xe 7.52701 15.0964 22.1151
Xe 7.28994 17.1168 19.4391
Xe 9.95739 14.7507 19.9244
Xe 9.80628 17.3729 22.0453
Xe 12.478 15.5647 21.9077
Xe 12.4026 17.9932 19.7419
Xe 14.968 14.8346 19.5101
Xe 14.9834 17.4174 22.093
Xe 17.3852 14.5651 21.8254
Xe 17.2781 17.3575 19.738
Xe 20.0094 15.3762 19.7664
Xe 20.1674 17.3109 22.3213
Xe 22.5022 15.0081 22.4191
Xe 22.6735 17.5271 19.9907
Xe 0.0281309 20.0141 19.4006
Xe 24.849 22.4209 22.5096
Xe 2.32183 20.485 22.3684
Xe 2.39514 22.495 20.0079
Xe 4.25709 20.1243 19.7194
Xe 4.99818 22.194 22.4154
Xe 7.0891 19.6044 22.1668
Xe 7.2901 22.7179 19.5365
Xe 9.7749 20.0259 19.8818
Xe 9.85663 22.6001 21.9359
Xe 12.3286 19.935 22.2303
Xe 12.5226 22.4017 19.8773
Xe 15.0934 19.9655 19.7519
Xe 14.8513 22.577 22.4225
Xe 17.701 19.8501 21.9339
Xe 17.4378 22.7456 20.4456
Xe 20.2724 19.7137 19.7376
Xe 19.9678 22.3379 22.0776
Xe 22.4994 19.5743 22.1682
Xe 22.3848 22.6723 19.9992
