periodic cnt
480 atoms
1 atom types

  0.  60.       xlo xhi  
  0.  60.       ylo yhi
  0. 50.204     zlo zhi

Atoms

  1 1 30 33.9088 0.424724
  2 1 30 26.0912 0.424724
  3 1 32.2975 33.1623 0.424724
  4 1 32.2975 26.8377 0.424724
  5 1 27.7025 33.1623 0.424724
  6 1 27.7025 26.8377 0.424724
  7 1 33.7175 31.2079 0.424724
  8 1 33.7175 28.7921 0.424724
  9 1 26.2825 31.2079 0.424724
 10 1 26.2825 28.7921 0.424724
 11 1 31.2079 33.7175 1.11615
 12 1 31.2079 26.2825 1.11615
 13 1 28.7921 33.7175 1.11615
 14 1 28.7921 26.2825 1.11615
 15 1 33.1623 32.2975 1.11616
 16 1 33.1623 27.7025 1.11616
 17 1 26.8377 32.2975 1.11616
 18 1 26.8377 27.7025 1.11616
 19 1 33.9088 30 1.11616
 20 1 26.0912 30 1.11616
 21 1 31.2079 33.7175 2.51657
 22 1 31.2079 26.2825 2.51657
 23 1 28.7921 33.7175 2.51657
 24 1 28.7921 26.2825 2.51657
 25 1 33.1623 32.2975 2.51657
 26 1 33.1623 27.7025 2.51657
 27 1 26.8377 32.2975 2.51657
 28 1 26.8377 27.7025 2.51657
 29 1 33.9088 30 2.51657
 30 1 26.0912 30 2.51657
 31 1 30 33.9088 3.20801
 32 1 30 26.0912 3.20801
 33 1 32.2975 33.1623 3.20801
 34 1 32.2975 26.8377 3.20801
 35 1 27.7025 33.1623 3.20801
 36 1 27.7025 26.8377 3.20801
 37 1 33.7175 31.2079 3.20801
 38 1 33.7175 28.7921 3.20801
 39 1 26.2825 31.2079 3.20801
 40 1 26.2825 28.7921 3.20801
 41 1 30 33.9088 4.60842
 42 1 30 26.0912 4.60842
 43 1 32.2975 33.1623 4.60842
 44 1 32.2975 26.8377 4.60842
 45 1 27.7025 33.1623 4.60842
 46 1 27.7025 26.8377 4.60842
 47 1 33.7175 31.2079 4.60842
 48 1 33.7175 28.7921 4.60842
 49 1 26.2825 31.2079 4.60842
 50 1 26.2825 28.7921 4.60842
 51 1 31.2079 33.7175 5.29986
 52 1 31.2079 26.2825 5.29986
 53 1 28.7921 33.7175 5.29986
 54 1 28.7921 26.2825 5.29986
 55 1 33.1623 32.2975 5.29986
 56 1 33.1623 27.7025 5.29986
 57 1 26.8377 32.2975 5.29986
 58 1 26.8377 27.7025 5.29986
 59 1 33.9088 30 5.29986
 60 1 26.0912 30 5.29986
 61 1 31.2079 33.7175 6.70027
 62 1 31.2079 26.2825 6.70027
 63 1 28.7921 33.7175 6.70027
 64 1 28.7921 26.2825 6.70027
 65 1 33.1623 32.2975 6.70027
 66 1 33.1623 27.7025 6.70027
 67 1 26.8377 32.2975 6.70027
 68 1 26.8377 27.7025 6.70027
 69 1 33.9088 30 6.70027
 70 1 26.0912 30 6.70027
 71 1 30 33.9088 7.39171
 72 1 30 26.0912 7.39171
 73 1 32.2975 33.1623 7.39171
 74 1 32.2975 26.8377 7.39171
 75 1 27.7025 33.1623 7.39171
 76 1 27.7025 26.8377 7.39171
 77 1 33.7175 31.2079 7.39171
 78 1 33.7175 28.7921 7.39171
 79 1 26.2825 31.2079 7.39171
 80 1 26.2825 28.7921 7.39171
 81 1 30 33.9088 8.79212
 82 1 30 26.0912 8.79212
 83 1 32.2975 33.1623 8.79212
 84 1 32.2975 26.8377 8.79212
 85 1 27.7025 33.1623 8.79212
 86 1 27.7025 26.8377 8.79212
 87 1 33.7175 31.2079 8.79212
 88 1 33.7175 28.7921 8.79212
 89 1 26.2825 31.2079 8.79212
 90 1 26.2825 28.7921 8.79212
 91 1 31.2079 33.7175 9.48356
 92 1 31.2079 26.2825 9.48356
 93 1 28.7921 33.7175 9.48356
 94 1 28.7921 26.2825 9.48356
 95 1 33.1623 32.2975 9.48356
 96 1 33.1623 27.7025 9.48356
 97 1 26.8377 32.2975 9.48356
 98 1 26.8377 27.7025 9.48356
 99 1 33.9088 30 9.48356
100 1 26.0912 30 9.48356
101 1 31.2079 33.7175 10.884
102 1 31.2079 26.2825 10.884
103 1 28.7921 33.7175 10.884
104 1 28.7921 26.2825 10.884
105 1 33.1623 32.2975 10.884
106 1 33.1623 27.7025 10.884
107 1 26.8377 32.2975 10.884
108 1 26.8377 27.7025 10.884
109 1 33.9088 30 10.884
110 1 26.0912 30 10.884
111 1 30 33.9088 11.5754
112 1 30 26.0912 11.5754
113 1 32.2975 33.1623 11.5754
114 1 32.2975 26.8377 11.5754
115 1 27.7025 33.1623 11.5754
116 1 27.7025 26.8377 11.5754
117 1 33.7175 31.2079 11.5754
118 1 33.7175 28.7921 11.5754
119 1 26.2825 31.2079 11.5754
120 1 26.2825 28.7921 11.5754
121 1 30 33.9088 12.9758
122 1 30 26.0912 12.9758
123 1 32.2975 33.1623 12.9758
124 1 32.2975 26.8377 12.9758
125 1 27.7025 33.1623 12.9758
126 1 27.7025 26.8377 12.9758
127 1 33.7175 31.2079 12.9758
128 1 33.7175 28.7921 12.9758
129 1 26.2825 31.2079 12.9758
130 1 26.2825 28.7921 12.9758
131 1 31.2079 33.7175 13.6673
132 1 31.2079 26.2825 13.6673
133 1 28.7921 33.7175 13.6673
134 1 28.7921 26.2825 13.6673
135 1 33.1623 32.2975 13.6673
136 1 33.1623 27.7025 13.6673
137 1 26.8377 32.2975 13.6673
138 1 26.8377 27.7025 13.6673
139 1 33.9088 30 13.6673
140 1 26.0912 30 13.6673
141 1 31.2079 33.7175 15.0677
142 1 31.2079 26.2825 15.0677
143 1 28.7921 33.7175 15.0677
144 1 28.7921 26.2825 15.0677
145 1 33.1623 32.2975 15.0677
146 1 33.1623 27.7025 15.0677
147 1 26.8377 32.2975 15.0677
148 1 26.8377 27.7025 15.0677
149 1 33.9088 30 15.0677
150 1 26.0912 30 15.0677
151 1 30 33.9088 15.7591
152 1 30 26.0912 15.7591
153 1 32.2975 33.1623 15.7591
154 1 32.2975 26.8377 15.7591
155 1 27.7025 33.1623 15.7591
156 1 27.7025 26.8377 15.7591
157 1 33.7175 31.2079 15.7591
158 1 33.7175 28.7921 15.7591
159 1 26.2825 31.2079 15.7591
160 1 26.2825 28.7921 15.7591
161 1 30 33.9088 17.1595
162 1 30 26.0912 17.1595
163 1 32.2975 33.1623 17.1595
164 1 32.2975 26.8377 17.1595
165 1 27.7025 33.1623 17.1595
166 1 27.7025 26.8377 17.1595
167 1 33.7175 31.2079 17.1595
168 1 33.7175 28.7921 17.1595
169 1 26.2825 31.2079 17.1595
170 1 26.2825 28.7921 17.1595
171 1 31.2079 33.7175 17.851
172 1 31.2079 26.2825 17.851
173 1 28.7921 33.7175 17.851
174 1 28.7921 26.2825 17.851
175 1 33.1623 32.2975 17.851
176 1 33.1623 27.7025 17.851
177 1 26.8377 32.2975 17.851
178 1 26.8377 27.7025 17.851
179 1 33.9088 30 17.851
180 1 26.0912 30 17.851
181 1 31.2079 33.7175 19.2514
182 1 31.2079 26.2825 19.2514
183 1 28.7921 33.7175 19.2514
184 1 28.7921 26.2825 19.2514
185 1 33.1623 32.2975 19.2514
186 1 33.1623 27.7025 19.2514
187 1 26.8377 32.2975 19.2514
188 1 26.8377 27.7025 19.2514
189 1 33.9088 30 19.2514
190 1 26.0912 30 19.2514
191 1 30 33.9088 19.9428
192 1 30 26.0912 19.9428
193 1 32.2975 33.1623 19.9428
194 1 32.2975 26.8377 19.9428
195 1 27.7025 33.1623 19.9428
196 1 27.7025 26.8377 19.9428
197 1 33.7175 31.2079 19.9428
198 1 33.7175 28.7921 19.9428
199 1 26.2825 31.2079 19.9428
200 1 26.2825 28.7921 19.9428
201 1 30 33.9088 21.3432
202 1 30 26.0912 21.3432
203 1 32.2975 33.1623 21.3432
204 1 32.2975 26.8377 21.3432
205 1 27.7025 33.1623 21.3432
206 1 27.7025 26.8377 21.3432
207 1 33.7175 31.2079 21.3432
208 1 33.7175 28.7921 21.3432
209 1 26.2825 31.2079 21.3432
210 1 26.2825 28.7921 21.3432
211 1 31.2079 33.7175 22.0347
212 1 31.2079 26.2825 22.0347
213 1 28.7921 33.7175 22.0347
214 1 28.7921 26.2825 22.0347
215 1 33.1623 32.2975 22.0347
216 1 33.1623 27.7025 22.0347
217 1 26.8377 32.2975 22.0347
218 1 26.8377 27.7025 22.0347
219 1 33.9088 30 22.0347
220 1 26.0912 30 22.0347
221 1 31.2079 33.7175 23.4351
222 1 31.2079 26.2825 23.4351
223 1 28.7921 33.7175 23.4351
224 1 28.7921 26.2825 23.4351
225 1 33.1623 32.2975 23.4351
226 1 33.1623 27.7025 23.4351
227 1 26.8377 32.2975 23.4351
228 1 26.8377 27.7025 23.4351
229 1 33.9088 30 23.4351
230 1 26.0912 30 23.4351
231 1 30 33.9088 24.1265
232 1 30 26.0912 24.1265
233 1 32.2975 33.1623 24.1265
234 1 32.2975 26.8377 24.1265
235 1 27.7025 33.1623 24.1265
236 1 27.7025 26.8377 24.1265
237 1 33.7175 31.2079 24.1265
238 1 33.7175 28.7921 24.1265
239 1 26.2825 31.2079 24.1265
240 1 26.2825 28.7921 24.1265
241 1 30 33.9088 25.5269
242 1 30 26.0912 25.5269
243 1 32.2975 33.1623 25.5269
244 1 32.2975 26.8377 25.5269
245 1 27.7025 33.1623 25.5269
246 1 27.7025 26.8377 25.5269
247 1 33.7175 31.2079 25.5269
248 1 33.7175 28.7921 25.5269
249 1 26.2825 31.2079 25.5269
250 1 26.2825 28.7921 25.5269
251 1 31.2079 33.7175 26.2184
252 1 31.2079 26.2825 26.2184
253 1 28.7921 33.7175 26.2184
254 1 28.7921 26.2825 26.2184
255 1 33.1623 32.2975 26.2184
256 1 33.1623 27.7025 26.2184
257 1 26.8377 32.2975 26.2184
258 1 26.8377 27.7025 26.2184
259 1 33.9088 30 26.2184
260 1 26.0912 30 26.2184
261 1 31.2079 33.7175 27.6188
262 1 31.2079 26.2825 27.6188
263 1 28.7921 33.7175 27.6188
264 1 28.7921 26.2825 27.6188
265 1 33.1623 32.2975 27.6188
266 1 33.1623 27.7025 27.6188
267 1 26.8377 32.2975 27.6188
268 1 26.8377 27.7025 27.6188
269 1 33.9088 30 27.6188
270 1 26.0912 30 27.6188
271 1 30 33.9088 28.3102
272 1 30 26.0912 28.3102
273 1 32.2975 33.1623 28.3102
274 1 32.2975 26.8377 28.3102
275 1 27.7025 33.1623 28.3102
276 1 27.7025 26.8377 28.3102
277 1 33.7175 31.2079 28.3102
278 1 33.7175 28.7921 28.3102
279 1 26.2825 31.2079 28.3102
280 1 26.2825 28.7921 28.3102
281 1 30 33.9088 29.7106
282 1 30 26.0912 29.7106
283 1 32.2975 33.1623 29.7106
284 1 32.2975 26.8377 29.7106
285 1 27.7025 33.1623 29.7106
286 1 27.7025 26.8377 29.7106
287 1 33.7175 31.2079 29.7106
288 1 33.7175 28.7921 29.7106
289 1 26.2825 31.2079 29.7106
290 1 26.2825 28.7921 29.7106
291 1 31.2079 33.7175 30.4021
292 1 31.2079 26.2825 30.4021
293 1 28.7921 33.7175 30.4021
294 1 28.7921 26.2825 30.4021
295 1 33.1623 32.2975 30.4021
296 1 33.1623 27.7025 30.4021
297 1 26.8377 32.2975 30.4021
298 1 26.8377 27.7025 30.4021
299 1 33.9088 30 30.4021
300 1 26.0912 30 30.4021
301 1 31.2079 33.7175 31.8025
302 1 31.2079 26.2825 31.8025
303 1 28.7921 33.7175 31.8025
304 1 28.7921 26.2825 31.8025
305 1 33.1623 32.2975 31.8025
306 1 33.1623 27.7025 31.8025
307 1 26.8377 32.2975 31.8025
308 1 26.8377 27.7025 31.8025
309 1 33.9088 30 31.8025
310 1 26.0912 30 31.8025
311 1 30 33.9088 32.4939
312 1 30 26.0912 32.4939
313 1 32.2975 33.1623 32.4939
314 1 32.2975 26.8377 32.4939
315 1 27.7025 33.1623 32.4939
316 1 27.7025 26.8377 32.4939
317 1 33.7175 31.2079 32.4939
318 1 33.7175 28.7921 32.4939
319 1 26.2825 31.2079 32.4939
320 1 26.2825 28.7921 32.4939
321 1 30 33.9088 33.8943
322 1 30 26.0912 33.8943
323 1 32.2975 33.1623 33.8943
324 1 32.2975 26.8377 33.8943
325 1 27.7025 33.1623 33.8943
326 1 27.7025 26.8377 33.8943
327 1 33.7175 31.2079 33.8943
328 1 33.7175 28.7921 33.8943
329 1 26.2825 31.2079 33.8943
330 1 26.2825 28.7921 33.8943
331 1 31.2079 33.7175 34.5858
332 1 31.2079 26.2825 34.5858
333 1 28.7921 33.7175 34.5858
334 1 28.7921 26.2825 34.5858
335 1 33.1623 32.2975 34.5858
336 1 33.1623 27.7025 34.5858
337 1 26.8377 32.2975 34.5858
338 1 26.8377 27.7025 34.5858
339 1 33.9088 30 34.5858
340 1 26.0912 30 34.5858
341 1 31.2079 33.7175 35.9862
342 1 31.2079 26.2825 35.9862
343 1 28.7921 33.7175 35.9862
344 1 28.7921 26.2825 35.9862
345 1 33.1623 32.2975 35.9862
346 1 33.1623 27.7025 35.9862
347 1 26.8377 32.2975 35.9862
348 1 26.8377 27.7025 35.9862
349 1 33.9088 30 35.9862
350 1 26.0912 30 35.9862
351 1 30 33.9088 36.6776
352 1 30 26.0912 36.6776
353 1 32.2975 33.1623 36.6776
354 1 32.2975 26.8377 36.6776
355 1 27.7025 33.1623 36.6776
356 1 27.7025 26.8377 36.6776
357 1 33.7175 31.2079 36.6776
358 1 33.7175 28.7921 36.6776
359 1 26.2825 31.2079 36.6776
360 1 26.2825 28.7921 36.6776
361 1 30 33.9088 38.078
362 1 30 26.0912 38.078
363 1 32.2975 33.1623 38.078
364 1 32.2975 26.8377 38.078
365 1 27.7025 33.1623 38.078
366 1 27.7025 26.8377 38.078
367 1 33.7175 31.2079 38.078
368 1 33.7175 28.7921 38.078
369 1 26.2825 31.2079 38.078
370 1 26.2825 28.7921 38.078
371 1 31.2079 33.7175 38.7695
372 1 31.2079 26.2825 38.7695
373 1 28.7921 33.7175 38.7695
374 1 28.7921 26.2825 38.7695
375 1 33.1623 32.2975 38.7695
376 1 33.1623 27.7025 38.7695
377 1 26.8377 32.2975 38.7695
378 1 26.8377 27.7025 38.7695
379 1 33.9088 30 38.7695
380 1 26.0912 30 38.7695
381 1 31.2079 33.7175 40.1699
382 1 31.2079 26.2825 40.1699
383 1 28.7921 33.7175 40.1699
384 1 28.7921 26.2825 40.1699
385 1 33.1623 32.2975 40.1699
386 1 33.1623 27.7025 40.1699
387 1 26.8377 32.2975 40.1699
388 1 26.8377 27.7025 40.1699
389 1 33.9088 30 40.1699
390 1 26.0912 30 40.1699
391 1 30 33.9088 40.8613
392 1 30 26.0912 40.8613
393 1 32.2975 33.1623 40.8613
394 1 32.2975 26.8377 40.8613
395 1 27.7025 33.1623 40.8613
396 1 27.7025 26.8377 40.8613
397 1 33.7175 31.2079 40.8613
398 1 33.7175 28.7921 40.8613
399 1 26.2825 31.2079 40.8613
400 1 26.2825 28.7921 40.8613
401 1 30 33.9088 42.2617
402 1 30 26.0912 42.2617
403 1 32.2975 33.1623 42.2617
404 1 32.2975 26.8377 42.2617
405 1 27.7025 33.1623 42.2617
406 1 27.7025 26.8377 42.2617
407 1 33.7175 31.2079 42.2617
408 1 33.7175 28.7921 42.2617
409 1 26.2825 31.2079 42.2617
410 1 26.2825 28.7921 42.2617
411 1 31.2079 33.7175 42.9532
412 1 31.2079 26.2825 42.9532
413 1 28.7921 33.7175 42.9532
414 1 28.7921 26.2825 42.9532
415 1 33.1623 32.2975 42.9532
416 1 33.1623 27.7025 42.9532
417 1 26.8377 32.2975 42.9532
418 1 26.8377 27.7025 42.9532
419 1 33.9088 30 42.9532
420 1 26.0912 30 42.9532
421 1 31.2079 33.7175 44.3536
422 1 31.2079 26.2825 44.3536
423 1 28.7921 33.7175 44.3536
424 1 28.7921 26.2825 44.3536
425 1 33.1623 32.2975 44.3536
426 1 33.1623 27.7025 44.3536
427 1 26.8377 32.2975 44.3536
428 1 26.8377 27.7025 44.3536
429 1 33.9088 30 44.3536
430 1 26.0912 30 44.3536
431 1 30 33.9088 45.045
432 1 30 26.0912 45.045
433 1 32.2975 33.1623 45.045
434 1 32.2975 26.8377 45.045
435 1 27.7025 33.1623 45.045
436 1 27.7025 26.8377 45.045
437 1 33.7175 31.2079 45.045
438 1 33.7175 28.7921 45.045
439 1 26.2825 31.2079 45.045
440 1 26.2825 28.7921 45.045
441 1 30 33.9088 46.4454
442 1 30 26.0912 46.4454
443 1 32.2975 33.1623 46.4454
444 1 32.2975 26.8377 46.4454
445 1 27.7025 33.1623 46.4454
446 1 27.7025 26.8377 46.4454
447 1 33.7175 31.2079 46.4454
448 1 33.7175 28.7921 46.4454
449 1 26.2825 31.2079 46.4454
450 1 26.2825 28.7921 46.4454
451 1 31.2079 33.7175 47.1369
452 1 31.2079 26.2825 47.1369
453 1 28.7921 33.7175 47.1369
454 1 28.7921 26.2825 47.1369
455 1 33.1623 32.2975 47.1369
456 1 33.1623 27.7025 47.1369
457 1 26.8377 32.2975 47.1369
458 1 26.8377 27.7025 47.1369
459 1 33.9088 30 47.1369
460 1 26.0912 30 47.1369
461 1 31.2079 33.7175 48.5373
462 1 31.2079 26.2825 48.5373
463 1 28.7921 33.7175 48.5373
464 1 28.7921 26.2825 48.5373
465 1 33.1623 32.2975 48.5373
466 1 33.1623 27.7025 48.5373
467 1 26.8377 32.2975 48.5373
468 1 26.8377 27.7025 48.5373
469 1 33.9088 30 48.5373
470 1 26.0912 30 48.5373
471 1 30 33.9088 49.2287
472 1 30 26.0912 49.2287
473 1 32.2975 33.1623 49.2287
474 1 32.2975 26.8377 49.2287
475 1 27.7025 33.1623 49.2287
476 1 27.7025 26.8377 49.2287
477 1 33.7175 31.2079 49.2287
478 1 33.7175 28.7921 49.2287
479 1 26.2825 31.2079 49.2287
480 1 26.2825 28.7921 49.2287
