<PP_INFO>
Generated using ld1 code                               
Author: P. Giannozzi Generation date: 1998 ?
Cl Z=7 MT scalar-rel BLYP 3s1.75 3p4.5 3d0.25 Rc=1.34 1.34 1.5  
    1        The Pseudo was generated with a Scalar-Relativistic Calculation
  0.00000000000E+00    Local Potential cutoff radius
nl pn  l   occ               Rcut            Rcut US             E pseu
3S  0  0  1.75      1.34000000000      0.00000000000      0.00000000000
3P  0  1  4.50      1.34000000000      0.00000000000      0.00000000000
3D  0  2  0.25      1.40000000000      0.00000000000      0.00000000000
</PP_INFO>


<PP_HEADER>
   0                   Version Number
  Cl                   Element
   NC                  Norm - Conserving pseudopotential
    F                  Nonlinear Core Correction
 SLA  LYP  B88  BLYP   BLYP Exchange-Correlation functional
    7.00000000000      Z valence
    0.00000000000      Total energy
  0.0000000  0.0000000 Suggested cutoff for wfc and rho
    1                  Max angular momentum component
  175                  Number of points in mesh
    3    2             Number of Wavefunctions, Number of Projectors
 Wavefunctions         nl  l   occ
                       3S  0  1.00
                       3P  1  4.50
                       4D  2  0.25
</PP_HEADER>


<PP_MESH>
  <PP_R>
  1.07739052287E-03  1.14687624168E-03  1.22084340434E-03  1.29958103912E-03
  1.38339681506E-03  1.47261824412E-03  1.56759396096E-03  1.66869508528E-03
  1.77631667190E-03  1.89087925452E-03  2.01283048892E-03  2.14264690220E-03
  2.28083575481E-03  2.42793702269E-03  2.58452550726E-03  2.75121308141E-03
  2.92865108046E-03  3.11753284726E-03  3.31859644140E-03  3.53262752325E-03
  3.76046242392E-03  4.00299141324E-03  4.26116217849E-03  4.53598352755E-03
  4.82852933082E-03  5.13994271738E-03  5.47144054180E-03  5.82431813905E-03
  6.19995438599E-03  6.59981708943E-03  7.02546872157E-03  7.47857252541E-03
  7.96089901392E-03  8.47433288832E-03  9.02088040264E-03  9.60267720317E-03
  1.02219966736E-02  1.08812588181E-02  1.15830397179E-02  1.23300815971E-02
  1.31253035381E-02  1.39718128880E-02  1.48729174003E-02  1.58321381605E-02
  1.68532233447E-02  1.79401628654E-02  1.90972039623E-02  2.03288677986E-02
  2.16399671277E-02  2.30356250986E-02  2.45212952752E-02  2.61027829459E-02
  2.77862678083E-02  2.95783281159E-02  3.14859663835E-02  3.35166367489E-02
  3.56782741007E-02  3.79793250840E-02  4.04287811054E-02  4.30362134674E-02
  4.58118107689E-02  4.87664187165E-02  5.19115825050E-02  5.52595919302E-02
  5.88235294118E-02  6.26173211128E-02  6.66557913569E-02  7.09547205542E-02
  7.55309068640E-02  8.04022318338E-02  8.55877302717E-02  9.11076646255E-02
  9.69836041588E-02  1.03238509233E-01  1.09896821025E-01  1.16984557034E-01
  1.24529412742E-01  1.32560869836E-01  1.41110311410E-01  1.50211144592E-01
  1.59898931086E-01  1.70211526128E-01  1.81189226407E-01  1.92874927526E-01
  2.05314291615E-01  2.18555925761E-01  2.32651571937E-01  2.47656309185E-01
  2.63628768843E-01  2.80631363645E-01  2.98730531599E-01  3.17996995597E-01
  3.38506039765E-01  3.60337803640E-01  3.83577595314E-01  4.08316224776E-01
  4.34650358761E-01  4.62682898467E-01  4.92523381655E-01  5.24288410659E-01
  5.58102108021E-01  5.94096601499E-01  6.32412540357E-01  6.73199644961E-01
  7.16617291806E-01  7.62835136292E-01  8.12033775651E-01  8.64405454635E-01
  9.20154816717E-01  9.79499703742E-01  1.04267200714E+00  1.10991857407E+00
  1.18150217195E+00  1.25770251524E+00  1.33881735844E+00  1.42516365957E+00
  1.51707881866E+00  1.61492199620E+00  1.71907551654E+00  1.82994636182E+00
  1.94796776228E+00  2.07360088909E+00  2.20733665645E+00  2.34969763975E+00
  2.50124011765E+00  2.66255624566E+00  2.83427637006E+00  3.01707149098E+00
  3.21165588430E+00  3.41878989279E+00  3.63928289708E+00  3.87399647838E+00
  4.12384778510E+00  4.38981311666E+00  4.67293173837E+00  4.97430994239E+00
  5.29512537062E+00  5.63663161630E+00  6.00016312251E+00  6.38714039652E+00
  6.79907556042E+00  7.23757825983E+00  7.70436195358E+00  8.20125060908E+00
  8.73018582956E+00  9.29323444089E+00  9.89259656776E+00  1.05306142307E+01
  1.12097804976E+01  1.19327492253E+01  1.27023454300E+01  1.35215763255E+01
  1.43936430744E+01  1.53219532963E+01  1.63101343837E+01  1.73620476757E+01
  1.84818035462E+01  1.96737774658E+01  2.09426270983E+01  2.22933105013E+01
  2.37311054996E+01  2.52616303083E+01  2.68908654864E+01  2.86251773058E+01
  3.04713426275E+01  3.24365753828E+01  3.45285547613E+01  3.67554552178E+01
  3.91259784144E+01  4.16493872218E+01  4.43355419150E+01  4.71949387016E+01
  5.02387507368E+01  5.34788717823E+01  5.69279626815E+01
  </PP_R>
  <PP_RAB>
  6.73369076792E-05  7.16797651051E-05  7.63027127710E-05  8.12238149451E-05
  8.64623009412E-05  9.20386402572E-05  9.79746225601E-05  1.04293442830E-04
  1.11019791994E-04  1.18179953408E-04  1.25801905558E-04  1.33915431387E-04
  1.42552234675E-04  1.51746063918E-04  1.61532844204E-04  1.71950817588E-04
  1.83040692529E-04  1.94845802954E-04  2.07412277587E-04  2.20789220203E-04
  2.35028901495E-04  2.50186963327E-04  2.66322636155E-04  2.83498970472E-04
  3.01783083176E-04  3.21246419836E-04  3.41965033863E-04  3.64019883691E-04
  3.87497149125E-04  4.12488568089E-04  4.39091795098E-04  4.67410782838E-04
  4.97556188370E-04  5.29645805520E-04  5.63805025165E-04  6.00167325198E-04
  6.38874792097E-04  6.80078676130E-04  7.23939982368E-04  7.70630099820E-04
  8.20331471134E-04  8.73238305498E-04  9.29557337517E-04  9.89508635034E-04
  1.05332645904E-03  1.12126017908E-03  1.19357524764E-03  1.27055423742E-03
  1.35249794548E-03  1.43972656866E-03  1.53258095470E-03  1.63142393412E-03
  1.73664173802E-03  1.84864550725E-03  1.96787289897E-03  2.09478979680E-03
  2.22989213130E-03  2.37370781775E-03  2.52679881908E-03  2.68976334172E-03
  2.86323817306E-03  3.04790116978E-03  3.24447390656E-03  3.45372449564E-03
  3.67647058824E-03  3.91358256955E-03  4.16598695980E-03  4.43467003464E-03
  4.72068167900E-03  5.02513948961E-03  5.34923314198E-03  5.69422903910E-03
  6.06147525993E-03  6.45240682706E-03  6.86855131409E-03  7.31153481464E-03
  7.78308829637E-03  8.28505436475E-03  8.81939446311E-03  9.38819653700E-03
  9.99368319286E-03  1.06382203830E-02  1.13243266504E-02  1.20546829704E-02
  1.28321432260E-02  1.36597453601E-02  1.45407232460E-02  1.54785193241E-02
  1.64767980527E-02  1.75394602278E-02  1.86706582249E-02  1.98748122248E-02
  2.11566274853E-02  2.25211127275E-02  2.39735997071E-02  2.55197640485E-02
  2.71656474225E-02  2.89176811542E-02  3.07827113534E-02  3.27680256662E-02
  3.48813817513E-02  3.71310375937E-02  3.95257837723E-02  4.20749778100E-02
  4.47885807379E-02  4.76771960183E-02  5.07521109782E-02  5.40253409147E-02
  5.75096760448E-02  6.12187314839E-02  6.51670004466E-02  6.93699108797E-02
  7.38438857470E-02  7.86064072027E-02  8.36760849027E-02  8.90727287228E-02
  9.48174261662E-02  1.00932624763E-01  1.07442219784E-01  1.14371647614E-01
  1.21747985142E-01  1.29600055568E-01  1.37958541028E-01  1.46856102485E-01
  1.56327507353E-01  1.66409765354E-01  1.77142273129E-01  1.88566968186E-01
  2.00728492769E-01  2.13674368299E-01  2.27455181068E-01  2.42124779899E-01
  2.57740486569E-01  2.74363319791E-01  2.92058233648E-01  3.10894371400E-01
  3.30945335664E-01  3.52289476019E-01  3.75010195157E-01  3.99196274782E-01
  4.24942222526E-01  4.52348641240E-01  4.81522622099E-01  5.12578163068E-01
  5.45636614348E-01  5.80827152556E-01  6.18287285485E-01  6.58163389418E-01
  7.00611281098E-01  7.45796826584E-01  7.93896589377E-01  8.45098520346E-01
  8.99602692148E-01  9.57622081019E-01  1.01938339898E+00  1.08512797973E+00
  1.15511272164E+00  1.22961109161E+00  1.30891419364E+00  1.39333190633E+00
  1.48319409372E+00  1.57885189427E+00  1.68067909290E+00  1.78907358161E+00
  1.90445891422E+00  2.02728596143E+00  2.15803467258E+00  2.29721595111E+00
  2.44537365090E+00  2.60308670137E+00  2.77097136969E+00  2.94968366885E+00
  3.13992192105E+00  3.34242948639E+00  3.55799766759E+00
  </PP_RAB>
</PP_MESH>


<PP_LOCAL>
 -3.74550405127E+01 -3.74520583738E+01 -3.74486865172E+01 -3.74448799777E+01
 -3.74405856815E+01 -3.74357437729E+01 -3.74302877481E+01 -3.74241438660E+01
 -3.74172305797E+01 -3.74094579639E+01 -3.74007271464E+01 -3.73909297819E+01
 -3.73799475677E+01 -3.73676518261E+01 -3.73539031608E+01 -3.73385512216E+01
 -3.73214345805E+01 -3.73023807299E+01 -3.72812062215E+01 -3.72577169391E+01
 -3.72317085039E+01 -3.72029668070E+01 -3.71712686563E+01 -3.71363825267E+01
 -3.70980694051E+01 -3.70560837276E+01 -3.70101744220E+01 -3.69600860722E+01
 -3.69055602463E+01 -3.68463370357E+01 -3.67821568663E+01 -3.67127626481E+01
 -3.66379023303E+01 -3.65573319217E+01 -3.64708190240E+01 -3.63781469107E+01
 -3.62791191595E+01 -3.61735648246E+01 -3.60613441057E+01 -3.59423544422E+01
 -3.58165369287E+01 -3.56838829174E+01 -3.55444406366E+01 -3.53983216232E+01
 -3.52457067353E+01 -3.50868514821E+01 -3.49220903880E+01 -3.47518400963E+01
 -3.45766009188E+01 -3.43969565544E+01 -3.42135717380E+01 -3.40271876365E+01
 -3.38386148851E+01 -3.36487242578E+01 -3.34584350734E+01 -3.32687015622E+01
 -3.30804975408E+01 -3.28947998548E+01 -3.27125711416E+01 -3.25347425304E+01
 -3.23621969201E+01 -3.21957534505E+01 -3.20361537188E+01 -3.18840501747E+01
 -3.17399969772E+01 -3.16044434223E+01 -3.14777298607E+01 -3.13600858524E+01
 -3.12516301485E+01 -3.11523719845E+01 -3.10622131099E+01 -3.09809499816E+01
 -3.09082756107E+01 -3.08437806605E+01 -3.07869535414E+01 -3.07371794039E+01
 -3.06937380708E+01 -3.06558010405E+01 -3.06224277003E+01 -3.05925607924E+01
 -3.05650209540E+01 -3.05384998108E+01 -3.05115506732E+01 -3.04825753962E+01
 -3.04498055064E+01 -3.04112753219E+01 -3.03647845942E+01 -3.03078482302E+01
 -3.02376309662E+01 -3.01508655091E+01 -3.00437536797E+01 -2.99118515953E+01
 -2.97499420746E+01 -2.95519005122E+01 -2.93105648304E+01 -2.90176262107E+01
 -2.86635655798E+01 -2.82376714955E+01 -2.77281878948E+01 -2.71226539774E+01
 -2.64085106960E+01 -2.55740543117E+01 -2.46098103020E+01 -2.35103715744E+01
 -2.22766841071E+01 -2.09186648573E+01 -1.94579058061E+01 -1.79300968770E+01
 -1.63870042514E+01 -1.48984297759E+01 -1.35436889388E+01 -1.23858378732E+01
 -1.14592327536E+01 -1.07645869218E+01 -1.02444984305E+01 -9.77271401842E+00
 -9.22637548435E+00 -8.66842617133E+00 -8.14366583383E+00 -7.65043428780E+00
 -7.18697611237E+00 -6.75155443645E+00 -6.34249877605E+00 -5.95822272796E+00
 -5.59722887206E+00 -5.25810757495E+00 -4.93953350724E+00 -4.64026161070E+00
 -4.35912203172E+00 -4.09501605063E+00 -3.84691152316E+00 -3.61383891190E+00
 -3.39488748994E+00 -3.18920164516E+00 -2.99597769599E+00 -2.81446059703E+00
 -2.64394104579E+00 -2.48375275700E+00 -2.33326978448E+00 -2.19190411949E+00
 -2.05910335949E+00 -1.93434859425E+00 -1.81715234071E+00 -1.70705664548E+00
 -1.60363130604E+00 -1.50647219637E+00 -1.41519966017E+00 -1.32945704546E+00
 -1.24890931249E+00 -1.17324172102E+00 -1.10215860126E+00 -1.03538218596E+00
 -9.72651549184E-01 -9.13721572510E-01 -8.58361984504E-01 -8.06356454985E-01
 -7.57501789354E-01 -7.11607076852E-01 -6.68492983366E-01 -6.27991041166E-01
 -5.89942987753E-01 -5.54200148865E-01 -5.20622859520E-01 -4.89079914883E-01
 -4.59448060658E-01 -4.31611510620E-01 -4.05461490853E-01 -3.80895821210E-01
 -3.57818509496E-01 -3.36139382812E-01 -3.15773726532E-01 -2.96641964328E-01
 -2.78669335696E-01 -2.61785614398E-01 -2.45924826272E-01
</PP_LOCAL>


<PP_NONLOCAL>
  <PP_BETA>
    1    0             Beta    L
   148
  1.24776609182E-02  1.32824008611E-02  1.41390420880E-02  1.50509319201E-02
  1.60216344335E-02  1.70549429802E-02  1.81548952143E-02  1.93257897860E-02
  2.05722022021E-02  2.18990037468E-02  2.33113787332E-02  2.48148473193E-02
  2.64152847074E-02  2.81189464646E-02  2.99324905040E-02  3.18630015712E-02
  3.39180313112E-02  3.61056071729E-02  3.84342797110E-02  4.09131504105E-02
  4.35519134243E-02  4.63608806152E-02  4.93510344227E-02  5.25340668180E-02
  5.59224182584E-02  5.95293416838E-02  6.33689414715E-02  6.74562346504E-02
  7.18072065496E-02  7.64388803601E-02  8.13693755657E-02  8.66179886337E-02
  9.22052597925E-02  9.81530620685E-02  1.04484687540E-01  1.11224936371E-01
  1.18400219759E-01  1.26038654527E-01  1.34170199460E-01  1.42826752667E-01
  1.52042287910E-01  1.61853002041E-01  1.72297445742E-01  1.83416701543E-01
  1.95254536793E-01  2.07857595542E-01  2.21275587614E-01  2.35561508232E-01
  2.50771857574E-01  2.66966888059E-01  2.84210859850E-01  3.02572360176E-01
  3.22124547282E-01  3.42945563781E-01  3.65118804862E-01  3.88733472464E-01
  4.13884850363E-01  4.40674828513E-01  4.69212453622E-01  4.99614505382E-01
  5.32006153200E-01  5.66521553214E-01  6.03304773650E-01  6.42510545623E-01
  6.84305309616E-01  7.28868247730E-01  7.76392630358E-01  8.27087024950E-01
  8.81176913502E-01  9.38906482785E-01  1.00054059669E+00  1.06636692554E+00
  1.13669858735E+00  1.21187697543E+00  1.29227484672E+00  1.37830011038E+00
  1.47039958279E+00  1.56906357078E+00  1.67483060856E+00  1.78829258950E+00
  1.91010011057E+00  2.04096779722E+00  2.18167934975E+00  2.33309163752E+00
  2.49613678100E+00  2.67182156444E+00  2.86122125449E+00  3.06546662076E+00
  3.28571644886E+00  3.52311684660E+00  3.77872838549E+00  4.05342152456E+00
  4.34771552304E+00  4.66154319460E+00  4.99391441412E+00  5.34244468740E+00
  5.70270689834E+00  6.06737097782E+00  6.42510668958E+00  6.75926276973E+00
  7.04643484023E+00  7.25519889473E+00  7.34557581162E+00  7.27021311302E+00
  6.97873594647E+00  6.42701328010E+00  5.59257526758E+00  4.49523180350E+00
  3.21722109318E+00  1.91060288419E+00  7.75252318641E-01 -3.16924569005E-03
 -3.42415868207E-01 -3.30125018162E-01 -1.80690018859E-01 -4.04162373429E-02
  0.00000000000E+00  0.00000000000E+00  0.00000000000E+00  0.00000000000E+00
  0.00000000000E+00  0.00000000000E+00  0.00000000000E+00  0.00000000000E+00
  0.00000000000E+00  0.00000000000E+00  0.00000000000E+00  0.00000000000E+00
  0.00000000000E+00  0.00000000000E+00  0.00000000000E+00  0.00000000000E+00
  0.00000000000E+00  0.00000000000E+00  0.00000000000E+00  0.00000000000E+00
  0.00000000000E+00  0.00000000000E+00  0.00000000000E+00  0.00000000000E+00
  0.00000000000E+00  0.00000000000E+00  0.00000000000E+00  0.00000000000E+00
  0.00000000000E+00  0.00000000000E+00  0.00000000000E+00  0.00000000000E+00
  </PP_BETA>
  <PP_BETA>
    2    1             Beta    L
   148
  2.06183219622E-05  2.33636195403E-05  2.64744499911E-05  2.99994807382E-05
  3.39938897112E-05  3.85201510669E-05  4.36490777486E-05  4.94609164275E-05
  5.60465945189E-05  6.35091496880E-05  7.19653333981E-05  8.15474493300E-05
  9.24054114654E-05  1.04709096183E-04  1.18651000192E-04  1.34449246553E-04
  1.52351002989E-04  1.72636356419E-04  1.95622648791E-04  2.21669537805E-04
  2.51184500341E-04  2.84629321001E-04  3.22527222736E-04  3.65471129601E-04
  4.14132875740E-04  4.69273783061E-04  5.31756489293E-04  6.02558499563E-04
  6.82787478391E-04  7.73698518649E-04  8.76713860617E-04  9.93445027335E-04
  1.12571811972E-03  1.27560232216E-03  1.44544224371E-03  1.63789465255E-03
  1.85596987406E-03  2.10307910275E-03  2.38308740851E-03  2.70037438020E-03
  3.05990222060E-03  3.46729381042E-03  3.92892023409E-03  4.45200013282E-03
  5.04471274323E-03  5.71632529673E-03  6.47733765160E-03  7.33964635304E-03
  8.31672997826E-03  9.42385863659E-03  1.06783331971E-02  1.20997527177E-02
  1.37103213891E-02  1.55351921099E-02  1.76028576601E-02  1.99455919836E-02
  2.25999521901E-02  2.56073430873E-02  2.90146553199E-02  3.28749908691E-02
  3.72484776158E-02  4.22031947141E-02  4.78162101404E-02  5.41747637476E-02
  6.13775816275E-02  6.95363799385E-02  7.87775297412E-02  8.92439618842E-02
  1.01097266716E-01  1.14520075549E-01  1.29718707508E-01  1.46926116686E-01
  1.66405173947E-01  1.88452281576E-01  2.13401353034E-01  2.41628129362E-01
  2.73554913739E-01  3.09655518430E-01  3.50460492037E-01  3.96562454728E-01
  4.48621381442E-01  5.07369393690E-01  5.73614692883E-01  6.48244071108E-01
  7.32222818793E-01  8.26590870499E-01  9.32453216714E-01  1.05096223088E+00
  1.18328823059E+00  1.33057410571E+00  1.49386799492E+00  1.67402682415E+00
  1.87158177984E+00  2.08655559258E+00  2.31822050508E+00  2.56478744081E+00
  2.82301835365E+00  3.08776607724E+00  3.35145705411E+00  3.60356128019E+00
  3.83013581248E+00  4.01357792842E+00  4.13280194614E+00  4.16412192396E+00
  4.08318170026E+00  3.86827297543E+00  3.50525765623E+00  2.99398822266E+00
  2.35551052103E+00  1.63836667438E+00  9.20955421525E-01  3.05208388406E-01
 -1.04803183747E-01 -2.45841872571E-01 -1.61925263606E-01 -3.70410828573E-02
  0.00000000000E+00  0.00000000000E+00  0.00000000000E+00  0.00000000000E+00
  0.00000000000E+00  0.00000000000E+00  0.00000000000E+00  0.00000000000E+00
  0.00000000000E+00  0.00000000000E+00  0.00000000000E+00  0.00000000000E+00
  0.00000000000E+00  0.00000000000E+00  0.00000000000E+00  0.00000000000E+00
  0.00000000000E+00  0.00000000000E+00  0.00000000000E+00  0.00000000000E+00
  0.00000000000E+00  0.00000000000E+00  0.00000000000E+00  0.00000000000E+00
  0.00000000000E+00  0.00000000000E+00  0.00000000000E+00  0.00000000000E+00
  0.00000000000E+00  0.00000000000E+00  0.00000000000E+00  0.00000000000E+00
  </PP_BETA>
  <PP_DIJ>
    2                  Number of nonzero Dij
    1    1  6.06843043093E-01
    2    2  1.15062588401E+00
  </PP_DIJ>
</PP_NONLOCAL>


<PP_PSWFC>
3S    0  1.75          Wavefunction
  4.48437000000E-04  4.77358700000E-04  5.08145690000E-04  5.40918270000E-04
  5.75804530000E-04  6.12940800000E-04  6.52472190000E-04  6.94553190000E-04
  7.39348240000E-04  7.87032410000E-04  8.37792020000E-04  8.91825460000E-04
  9.49343880000E-04  1.01057210000E-03  1.07574940000E-03  1.14513040000E-03
  1.21898650000E-03  1.29760620000E-03  1.38129680000E-03  1.47038540000E-03
  1.56522040000E-03  1.66617240000E-03  1.77363610000E-03  1.88803170000E-03
  2.00980630000E-03  2.13943620000E-03  2.27742830000E-03  2.42432230000E-03
  2.58069270000E-03  2.74715130000E-03  2.92434930000E-03  3.11298020000E-03
  3.31378220000E-03  3.52754140000E-03  3.75509490000E-03  3.99733400000E-03
  4.25520790000E-03  4.52972710000E-03  4.82196830000E-03  5.13307790000E-03
  5.46427690000E-03  5.81686620000E-03  6.19223130000E-03  6.59184870000E-03
  7.01729140000E-03  7.47023580000E-03  7.95246850000E-03  8.46589420000E-03
  9.01254360000E-03  9.59458230000E-03  1.02143200000E-02  1.08742220000E-02
  1.15769180000E-02  1.23252170000E-02  1.31221170000E-02  1.39708250000E-02
  1.48747670000E-02  1.58376070000E-02  1.68632670000E-02  1.79559480000E-02
  1.91201540000E-02  2.03607140000E-02  2.16828160000E-02  2.30920350000E-02
  2.45943720000E-02  2.61962930000E-02  2.79047800000E-02  2.97273780000E-02
  3.16722580000E-02  3.37482880000E-02  3.59651130000E-02  3.83332440000E-02
  4.08641700000E-02  4.35704830000E-02  4.64660210000E-02  4.95660480000E-02
  5.28874490000E-02  5.64489770000E-02  6.02715360000E-02  6.43785200000E-02
  6.87962170000E-02  7.35542910000E-02  7.86863620000E-02  8.42307000000E-02
  9.02310500000E-02  9.67376400000E-02  1.03808370000E-01  1.11510280000E-01
  1.19921210000E-01  1.29131960000E-01  1.39248610000E-01  1.50395480000E-01
  1.62718430000E-01  1.76388620000E-01  1.91606670000E-01  2.08607040000E-01
  2.27662120000E-01  2.49085410000E-01  2.73232510000E-01  3.00497700000E-01
  3.31303080000E-01  3.66075430000E-01  4.05204240000E-01  4.48973150000E-01
  4.97456500000E-01  5.50377120000E-01  6.06931600000E-01  6.65611480000E-01
  7.24081740000E-01  7.79212010000E-01  8.27365000000E-01  8.64985060000E-01
  8.89361750000E-01  8.99205790000E-01  8.94600200000E-01  8.76358390000E-01
  8.45585900000E-01  8.03786200000E-01  7.52805950000E-01  6.94687350000E-01
  6.31576130000E-01  5.65616120000E-01  4.98851770000E-01  4.33146770000E-01
  3.70117030000E-01  3.11082600000E-01  2.57039800000E-01  2.08653700000E-01
  1.66270740000E-01  1.29948990000E-01  9.95024360000E-02  7.45536920000E-02
  5.45883840000E-02  3.90053340000E-02  2.71602700000E-02  1.84043560000E-02
  1.21185660000E-02  7.74193470000E-03  4.79048220000E-03  2.86570350000E-03
  1.65391020000E-03  9.18838480000E-04  4.90168610000E-04  2.50427120000E-04
  1.22184120000E-04  5.67580580000E-05  2.50212850000E-05  1.04316460000E-05
  4.09774040000E-06  1.51063700000E-06  5.20427360000E-07  1.66792550000E-07
  4.94921140000E-08  1.35260140000E-08  3.38775110000E-09  7.69891640000E-10
  1.54548220000E-10  0.00000000000E+00  0.00000000000E+00  0.00000000000E+00
  0.00000000000E+00  0.00000000000E+00  0.00000000000E+00  0.00000000000E+00
  0.00000000000E+00  0.00000000000E+00  0.00000000000E+00  0.00000000000E+00
  0.00000000000E+00  0.00000000000E+00  0.00000000000E+00  0.00000000000E+00
  0.00000000000E+00  0.00000000000E+00  0.00000000000E+00
3P    1  4.50          Wavefunction
  1.22021850000E-06  1.38268870000E-06  1.56679160000E-06  1.77540740000E-06
  2.01180160000E-06  2.27967150000E-06  2.58320790000E-06  2.92715990000E-06
  3.31690870000E-06  3.75855220000E-06  4.25899990000E-06  4.82608170000E-06
  5.46866970000E-06  6.19681740000E-06  7.02191700000E-06  7.95687730000E-06
  9.01632600000E-06  1.02168390000E-05  1.15771970000E-05  1.31186850000E-05
  1.48654180000E-05  1.68447250000E-05  1.90875710000E-05  2.16290460000E-05
  2.45089100000E-05  2.77722190000E-05  3.14700250000E-05  3.56601780000E-05
  4.04082310000E-05  4.57884620000E-05  5.18850410000E-05  5.87933400000E-05
  6.66214300000E-05  7.54917680000E-05  8.55431110000E-05  9.69326900000E-05
  1.09838660000E-04  1.24462900000E-04  1.41034150000E-04  1.59811600000E-04
  1.81088920000E-04  2.05198880000E-04  2.32518530000E-04  2.63475080000E-04
  2.98552590000E-04  3.38299510000E-04  3.83337240000E-04  4.34369840000E-04
  4.92195000000E-04  5.57716440000E-04  6.31958070000E-04  7.16079820000E-04
  8.11395810000E-04  9.19394690000E-04  1.04176280000E-03  1.18041030000E-03
  1.33750090000E-03  1.51548530000E-03  1.71713900000E-03  1.94560530000E-03
  2.20444360000E-03  2.49768430000E-03  2.82989040000E-03  3.20622780000E-03
  3.63254350000E-03  4.11545520000E-03  4.66245070000E-03  5.28200190000E-03
  5.98369090000E-03  6.77835360000E-03  7.67824020000E-03  8.69719520000E-03
  9.85085970000E-03  1.11568970000E-02  1.26352450000E-02  1.43083960000E-02
  1.62017120000E-02  1.83437680000E-02  2.07667340000E-02  2.35067950000E-02
  2.66046130000E-02  3.01058240000E-02  3.40615750000E-02  3.85291050000E-02
  4.35723520000E-02  4.92625890000E-02  5.56790700000E-02  6.29096790000E-02
  7.10515400000E-02  8.02115720000E-02  9.05069280000E-02  1.02065260000E-01
  1.15024720000E-01  1.29533590000E-01  1.45749380000E-01  1.63837240000E-01
  1.83967340000E-01  2.06311050000E-01  2.31035370000E-01  2.58295110000E-01
  2.88222330000E-01  3.20911980000E-01  3.56403090000E-01  3.94654330000E-01
  4.35512950000E-01  4.78676560000E-01  5.23648020000E-01  5.69685840000E-01
  6.15756360000E-01  6.60500490000E-01  7.02237550000E-01  7.39041610000E-01
  7.68930640000E-01  7.90181470000E-01  8.01695490000E-01  8.03173820000E-01
  7.94874130000E-01  7.77294490000E-01  7.51187900000E-01  7.17527540000E-01
  6.77448200000E-01  6.32198370000E-01  5.83089440000E-01  5.31446330000E-01
  4.78560100000E-01  4.25645500000E-01  3.73803480000E-01  3.23991020000E-01
  2.77000300000E-01  2.33448790000E-01  1.93781050000E-01  1.58280000000E-01
  1.27082640000E-01  1.00192810000E-01  7.74887380000E-02  5.87311190000E-02
  4.35806020000E-02  3.16262950000E-02  2.24191340000E-02  1.55033780000E-02
  1.04428210000E-02  6.84014230000E-03  4.34882470000E-03  2.67843300000E-03
  1.59468790000E-03  9.15757220000E-04  5.06004610000E-04  2.68342370000E-04
  1.36207750000E-04  6.59825910000E-05  3.04104380000E-05  1.32904410000E-05
  5.48830750000E-06  2.13338640000E-06  7.77467130000E-07  2.64463900000E-07
  8.36023570000E-08  2.43863190000E-08  6.48242850000E-09  0.00000000000E+00
  0.00000000000E+00  0.00000000000E+00  0.00000000000E+00  0.00000000000E+00
  0.00000000000E+00  0.00000000000E+00  0.00000000000E+00  0.00000000000E+00
  0.00000000000E+00  0.00000000000E+00  0.00000000000E+00  0.00000000000E+00
  0.00000000000E+00  0.00000000000E+00  0.00000000000E+00
3D    2  0.25          Wavefunction
  1.06270700000E-09  1.28186930000E-09  1.54622950000E-09  1.86510880000E-09
  2.24976220000E-09  2.71374500000E-09  3.27341730000E-09  3.94851380000E-09
  4.76283900000E-09  5.74510660000E-09  6.92995210000E-09  8.35915390000E-09
  1.00831070000E-08  1.21625970000E-08  1.46709500000E-08  1.76966100000E-08
  2.13462620000E-08  2.57485920000E-08  3.10588270000E-08  3.74642020000E-08
  4.51905670000E-08  5.45103460000E-08  6.57521440000E-08  7.93123300000E-08
  9.56690100000E-08  1.15398880000E-07  1.39197560000E-07  1.67904120000E-07
  2.02530630000E-07  2.44297860000E-07  2.94678300000E-07  3.55448030000E-07
  4.28749350000E-07  5.17166230000E-07  6.23815390000E-07  7.52456050000E-07
  9.07622420000E-07  1.09478330000E-06  1.32053490000E-06  1.59283270000E-06
  1.92127180000E-06  2.31742470000E-06  2.79524810000E-06  3.37157440000E-06
  4.06670310000E-06  4.90511470000E-06  5.91633060000E-06  7.13595030000E-06
  8.60690100000E-06  1.03809430000E-05  1.25204850000E-05  1.51007710000E-05
  1.82125110000E-05  2.19650560000E-05  2.64902150000E-05  3.19468540000E-05
  3.85264280000E-05  4.64596410000E-05  5.60244480000E-05  6.75556880000E-05
  8.14566470000E-05  9.82129530000E-05  1.18409260000E-04  1.42749260000E-04
  1.72079640000E-04  2.07418840000E-04  2.49991420000E-04  3.01269090000E-04
  3.63019800000E-04  4.37366100000E-04  5.26854680000E-04  6.34538880000E-04
  7.64076470000E-04  9.19845140000E-04  1.10707850000E-03  1.33202560000E-03
  1.60213770000E-03  1.92628480000E-03  2.31500580000E-03  2.78079650000E-03
  3.33843510000E-03  4.00535020000E-03  4.80202670000E-03  5.75244970000E-03
  6.88457570000E-03  8.23081760000E-03  9.82852120000E-03  1.17203980000E-02
  1.39548640000E-02  1.65862180000E-02  1.96745640000E-02  2.32853640000E-02
  2.74884620000E-02  3.23564300000E-02  3.79620070000E-02  4.43744790000E-02
  5.16548090000E-02  5.98494710000E-02  6.89830770000E-02  7.90501720000E-02
  9.00069400000E-02  1.01764080000E-01  1.14182590000E-01  1.27074660000E-01
  1.40211920000E-01  1.53342840000E-01  1.66219650000E-01  1.78632680000E-01
  1.90446750000E-01  2.01630740000E-01  2.12268680000E-01  2.22540890000E-01
  2.32667520000E-01  2.42816170000E-01  2.53000190000E-01  2.63037710000E-01
  2.72659070000E-01  2.81716620000E-01  2.90220680000E-01  2.98186460000E-01
  3.05629880000E-01  3.12580730000E-01  3.19069650000E-01  3.25124730000E-01
  3.30766410000E-01  3.36001350000E-01  3.40815440000E-01  3.45165920000E-01
  3.48974040000E-01  3.52121300000E-01  3.54454040000E-01  3.55801330000E-01
  3.56006180000E-01  3.54959900000E-01  3.52619360000E-01  3.48993130000E-01
  3.44105530000E-01  3.37963910000E-01  3.30544250000E-01  3.21789930000E-01
  3.11619610000E-01  2.99949290000E-01  2.86723210000E-01  2.71938700000E-01
  2.55659650000E-01  2.38021920000E-01  2.19233290000E-01  1.99567990000E-01
  1.79356980000E-01  1.58972400000E-01  1.38808960000E-01  1.19262340000E-01
  1.00706430000E-01  8.34712060000E-02  6.78232320000E-02  5.39507900000E-02
  4.19553150000E-02  3.18501540000E-02  2.35668120000E-02  1.69681230000E-02
  1.18642270000E-02  8.04118310000E-03  5.25404810000E-03  3.29681150000E-03
  1.98943700000E-03  1.15548440000E-03  6.44755640000E-04  3.44709370000E-04
  1.76078830000E-04  8.56702340000E-05  3.96096270000E-05  0.00000000000E+00
  0.00000000000E+00  0.00000000000E+00  0.00000000000E+00
</PP_PSWFC>


<PP_RHOATOM>
  2.01102443169E-07  2.27879931692E-07  2.58223089028E-07  2.92606759142E-07
  3.31569069825E-07  3.75719810366E-07  4.25749987060E-07  4.82442690936E-07
  5.46685328472E-07  6.19483584615E-07  7.01977094648E-07  7.95457460912E-07
  9.01388381086E-07  1.02142877179E-06  1.15745865459E-06  1.31160853662E-06
  1.48629391090E-06  1.68425157754E-06  1.90858399164E-06  2.16280767442E-06
  2.45090931402E-06  2.77740731869E-06  3.14742452545E-06  3.56676887212E-06
  4.04202445582E-06  4.58065808987E-06  5.19113629762E-06  5.88306103865E-06
  6.66732253518E-06  7.55627490465E-06  8.56393310878E-06  9.70620071291E-06
  1.10011253822E-05  1.24691939272E-05  1.41336671126E-05  1.60209610079E-05
  1.81610848687E-05  2.05881374608E-05  2.33408865638E-05  2.64634182255E-05
  3.00058923490E-05  3.40254133429E-05  3.85870223266E-05  4.37648581556E-05
  4.96434841475E-05  5.63194384357E-05  6.39030274723E-05  7.25204245466E-05
  8.23161122927E-05  9.34557507760E-05  1.06129541763E-04  1.20556227502E-04
  1.36987747525E-04  1.55714884395E-04  1.77073843786E-04  2.01454364475E-04
  2.29309153334E-04  2.61165465736E-04  2.97639107152E-04  3.39451419447E-04
  3.87450019915E-04  4.42634006917E-04  5.06185273420E-04  5.79506709954E-04
  6.64269712182E-04  7.62472894350E-04  8.76515380161E-04  1.00928764184E-03
  1.16428537820E-03  1.34575211408E-03  1.55885792363E-03  1.80992367502E-03
  2.10670380873E-03  2.45874209563E-03  2.87781988622E-03  3.37852256981E-03
  3.97895359582E-03  4.70163685760E-03  5.57465544938E-03  6.63308939496E-03
  7.92083020870E-03  9.49286730630E-03  1.14181674416E-02  1.37832971863E-02
  1.66969660944E-02  2.02957196198E-02  2.47510424016E-02  3.02782091815E-02
  3.71472271789E-02  4.56963720225E-02  5.63487155761E-02  6.96322802935E-02
  8.62042792973E-02  1.06879959128E-01  1.32666362449E-01  1.64801056183E-01
  2.04795015546E-01  2.54478153354E-01  3.16043710609E-01  3.92084737453E-01
  4.85611544927E-01  6.00030447528E-01  7.39054123606E-01  9.06498062569E-01
  1.10589969830E+00  1.33988410178E+00  1.60920582991E+00  1.91145485423E+00
  2.23956338431E+00  2.58050913316E+00  2.91491643619E+00  3.21840152185E+00
  3.46514234717E+00  3.63305137576E+00  3.70853225596E+00  3.68819807004E+00