 192
# CELL(abcABC):   12.41380    12.41380    12.41380    90.00000    90.00000    90.00000  Traj: positions{angstrom} Step:       18187  Bead:       0
 O   0.0000000   1.9988836   2.0096254
 H   1.0001626   0.0000000   0.0000000
 H   0.9987211   0.0000000   0.0000000
 O   0.0000000   1.9915486   2.0078659
 H   0.9999901   0.0000000   0.0000000
 H   0.9915585   0.0000000   0.0000000
 O   0.0000000   1.9999655   2.9797046
 H   0.9999848   0.0000000   0.0000000
 H   0.9999807   0.0000000   0.0000000
 O   0.0000000   2.0038335   2.3114723
 H   1.0038583   0.0000000   0.0000000
 H   0.9999753   0.0000000   0.0000000
 O   0.0000000   1.9885837   1.0730338
 H   0.9988979   0.0000000   0.0000000
 H   0.9896859   0.0000000   0.0000000
 O   0.0000000   2.0193033   1.9995667
 H   1.0126566   0.0000000   0.0000000
 H   1.0066467   0.0000000   0.0000000
 O   0.0000000   1.9999201   2.8830924
 H   0.9999212   0.0000000   0.0000000
 H   0.9999989   0.0000000   0.0000000
 O   0.0000000   2.0157308   2.1970188
 H   1.0000861   0.0000000   0.0000000
 H   1.0156447   0.0000000   0.0000000
 O   0.0000000   1.2835406   1.9607392
 H   1.1795988   0.0000000   0.0000000
 H   0.1039418   0.0000000   0.0000000
 O   0.0000000   2.4138574   1.3673813
 H   1.4133816   0.0000000   0.0000000
 H   1.0004758   0.0000000   0.0000000
 O   0.0000000   1.9991367   2.0872843
 H   0.9989070   0.0000000   0.0000000
 H   1.0002297   0.0000000   0.0000000
 O   0.0000000   1.9696068   1.9999252
 H   1.0055761   0.0000000   0.0000000
 H   0.9640307   0.0000000   0.0000000
 O   0.0000000   2.2948866   2.9675915
 H   1.2949067   0.0000000   0.0000000
 H   0.9999798   0.0000000   0.0000000
 O   0.0000000   1.9999507   2.4459002
 H   0.9999792   0.0000000   0.0000000
 H   0.9999716   0.0000000   0.0000000
 O   0.0000000   2.0087700   2.0147481
 H   1.0074210   0.0000000   0.0000000
 H   1.0013490   0.0000000   0.0000000
 O   0.0000000   1.9996032   2.8274338
 H   0.9996923   0.0000000   0.0000000
 H   0.9999109   0.0000000   0.0000000
 O   0.0000000   1.9998492   1.9999717
 H   0.9999156   0.0000000   0.0000000
 H   0.9999336   0.0000000   0.0000000
 O   0.0000000   1.9986173   2.3187662
 H   0.9986235   0.0000000   0.0000000
 H   0.9999938   0.0000000   0.0000000
 O   0.0000000   2.1388545   1.0000715
 H   1.1393463   0.0000000   0.0000000
 H   0.9995082   0.0000000   0.0000000
 O   0.0000000   2.8292279   2.6129785
 H   1.8292685   0.0000000   0.0000000
 H   0.9999594   0.0000000   0.0000000
 O   0.0000000   1.9999155   1.9979101
 H   0.9999236   0.0000000   0.0000000
 H   0.9999919   0.0000000   0.0000000
 O   0.0000000   2.9423807   1.9999762
 H   1.9421197   0.0000000   0.0000000
 H   1.0002610   0.0000000   0.0000000
 O   0.0000000   2.9567605   1.9927063
 H   1.9563362   0.0000000   0.0000000
 H   1.0004243   0.0000000   0.0000000
 O   0.0000000   2.0234940   1.9984870
 H   0.9999545   0.0000000   0.0000000
 H   1.0235395   0.0000000   0.0000000
 O   0.0000000   2.0893970   2.0083623
 H   1.0900944   0.0000000   0.0000000
 H   0.9993026   0.0000000   0.0000000
 O   0.0000000   1.8527465   1.0000149
 H   0.9694203   0.0000000   0.0000000
 H   0.8833263   0.0000000   0.0000000
 O   0.0000000   1.5813911   1.1592362
 H   0.5800982   0.0000000   0.0000000
 H   1.0012930   0.0000000   0.0000000
 O   0.0000000   2.0100602   1.0084684
 H   0.9999402   0.0000000   0.0000000
 H   1.0101200   0.0000000   0.0000000
 O   0.0000000   2.0036067   1.2100344
 H   1.0036605   0.0000000   0.0000000
 H   0.9999462   0.0000000   0.0000000
 O   0.0000000   1.9997255   2.0383616
 H   0.9999822   0.0000000   0.0000000
 H   0.9997434   0.0000000   0.0000000
 O   0.0000000   1.9999901   2.0610142
 H   0.9999978   0.0000000   0.0000000
 H   0.9999923   0.0000000   0.0000000
 O   0.0000000   1.9989317   1.9968871
 H   0.9999016   0.0000000   0.0000000
 H   0.9990301   0.0000000   0.0000000
 O   0.0000000   2.6131901   1.0764700
 H   1.0019719   0.0000000   0.0000000
 H   1.6112181   0.0000000   0.0000000
 O   0.0000000   2.0003713   1.9984839
 H   1.0003681   0.0000000   0.0000000
 H   1.0000032   0.0000000   0.0000000
 O   0.0000000   2.7275862   2.9211476
 H   1.7276828   0.0000000   0.0000000
 H   0.9999034   0.0000000   0.0000000
 O   0.0000000   1.9798823   2.8757109
 H   1.0000095   0.0000000   0.0000000
 H   0.9798728   0.0000000   0.0000000
 O   0.0000000   1.9999904   1.9999192
 H   0.9999916   0.0000000   0.0000000
 H   0.9999988   0.0000000   0.0000000
 O   0.0000000   2.0000296   1.8971338
 H   0.9996439   0.0000000   0.0000000
 H   1.0003857   0.0000000   0.0000000
 O   0.0000000   1.9999889   2.9988394
 H   0.9999935   0.0000000   0.0000000
 H   0.9999954   0.0000000   0.0000000
 O   0.0000000   2.0117654   1.9976430
 H   0.9999501   0.0000000   0.0000000
 H   1.0118152   0.0000000   0.0000000
 O   0.0000000   2.0180727   1.9995745
 H   1.0181610   0.0000000   0.0000000
 H   0.9999117   0.0000000   0.0000000
 O   0.0000000   1.8689500   2.9514923
 H   0.8688366   0.0000000   0.0000000
 H   1.0001133   0.0000000   0.0000000
 O   0.0000000   1.0000271   2.0000134
 H   0.0000175   0.0000000   0.0000000
 H   1.0000096   0.0000000   0.0000000
 O   0.0000000   1.9999070   2.0010856
 H   0.9999983   0.0000000   0.0000000
 H   0.9999087   0.0000000   0.0000000
 O   0.0000000   1.9996056   1.9999229
 H   0.9997797   0.0000000   0.0000000
 H   0.9998260   0.0000000   0.0000000
 O   0.0000000   3.0716489   1.9510568
 H   1.1965331   0.0000000   0.0000000
 H   1.8751158   0.0000000   0.0000000
 O   0.0000000   1.9978360   2.0104691
 H   0.9982534   0.0000000   0.0000000
 H   0.9995825   0.0000000   0.0000000
 O   0.0000000   1.1978019   1.9783938
 H   0.9999964   0.0000000   0.0000000
 H   0.1978055   0.0000000   0.0000000
 O   0.0000000   2.0203765   1.9999822
 H   1.0013071   0.0000000   0.0000000
 H   1.0190694   0.0000000   0.0000000
 O   0.0000000   1.9970293   1.9992692
 H   0.9979038   0.0000000   0.0000000
 H   0.9991255   0.0000000   0.0000000
 O   0.0000000   2.0036055   1.9992515
 H   1.0000729   0.0000000   0.0000000
 H   1.0035326   0.0000000   0.0000000
 O   0.0000000   1.2970546   1.0225446
 H   0.9989754   0.0000000   0.0000000
 H   0.2980792   0.0000000   0.0000000
 O   0.0000000   2.2763866   2.0299481
 H   1.3034815   0.0000000   0.0000000
 H   0.9729051   0.0000000   0.0000000
 O   0.0000000   1.9228615   1.8069035
 H   1.0002041   0.0000000   0.0000000
 H   0.9226574   0.0000000   0.0000000
 O   0.0000000   2.0000713   2.1783017
 H   0.9999913   0.0000000   0.0000000
 H   1.0000801   0.0000000   0.0000000
 O   0.0000000   2.0002205   2.9999116
 H   1.0002216   0.0000000   0.0000000
 H   0.9999989   0.0000000   0.0000000
 O   0.0000000   1.9975936   2.1414263
 H   0.9975394   0.0000000   0.0000000
 H   1.0000543   0.0000000   0.0000000
 O   0.0000000   2.1387582   2.0759743
 H   1.0025199   0.0000000   0.0000000
 H   1.1362383   0.0000000   0.0000000
 O   0.0000000   2.0000063   1.2202705
 H   1.0000111   0.0000000   0.0000000
 H   0.9999952   0.0000000   0.0000000
 O   0.0000000   2.9502704   2.9477778
 H   0.9999821   0.0000000   0.0000000
 H   1.9502883   0.0000000   0.0000000
 O   0.0000000   2.0733258   2.0000057
 H   1.0729966   0.0000000   0.0000000
 H   1.0003292   0.0000000   0.0000000
 O   0.0000000   1.9999688   1.9997230
 H   0.9999931   0.0000000   0.0000000
 H   0.9999757   0.0000000   0.0000000
 O   0.0000000   1.9999985   2.9986584
 H   0.9999997   0.0000000   0.0000000
 H   0.9999989   0.0000000   0.0000000
 O   0.0000000   2.0086058   1.9719211
 H   1.0082533   0.0000000   0.0000000
 H   1.0003525   0.0000000   0.0000000
 192
# CELL(abcABC):   12.41380    12.41380    12.41380    90.00000    90.00000    90.00000  Traj: positions{angstrom} Step:       19087  Bead:       0
 O   0.0000000   1.7071464   1.0992382
 H   1.0149145   0.0000000   0.0000000
 H   0.6922318   0.0000000   0.0000000
 O   0.0000000   2.0047737   1.0152402
 H   1.0049504   0.0000000   0.0000000
 H   0.9998233   0.0000000   0.0000000
 O   0.0000000   1.9999343   1.9122204
 H   0.9999499   0.0000000   0.0000000
 H   0.9999844   0.0000000   0.0000000
 O   0.0000000   1.9998130   2.8819790
 H   0.9998139   0.0000000   0.0000000
 H   0.9999991   0.0000000   0.0000000
 O   0.0000000   2.0195666   1.0268457
 H   1.0202892   0.0000000   0.0000000
 H   0.9992775   0.0000000   0.0000000
 O   0.0000000   2.9970488   1.9999872
 H   1.9970450   0.0000000   0.0000000
 H   1.0000038   0.0000000   0.0000000
 O   0.0000000   1.9864899   2.9888307
 H   0.9860318   0.0000000   0.0000000
 H   1.0004581   0.0000000   0.0000000
 O   0.0000000   2.0720659   2.1526532
 H   1.0000131   0.0000000   0.0000000
 H   1.0720527   0.0000000   0.0000000
 O   0.0000000   2.0024670   2.0529731
 H   1.0018744   0.0000000   0.0000000
 H   1.0005926   0.0000000   0.0000000
 O   0.0000000   1.9983899   1.2499496
 H   0.9983303   0.0000000   0.0000000
 H   1.0000596   0.0000000   0.0000000
 O   0.0000000   1.9996532   2.0748062
 H   0.9996583   0.0000000   0.0000000
 H   0.9999949   0.0000000   0.0000000
 O   0.0000000   1.7444959   2.0001930
 H   0.9999836   0.0000000   0.0000000
 H   0.7445123   0.0000000   0.0000000
 O   0.0000000   1.9153096   2.0091461
 H   0.9125054   0.0000000   0.0000000
 H   1.0028042   0.0000000   0.0000000
 O   0.0000000   1.9998876   1.9999956
 H   0.9999969   0.0000000   0.0000000
 H   0.9998907   0.0000000   0.0000000
 O   0.0000000   1.9236411   1.4684390
 H   0.9237000   0.0000000   0.0000000
 H   0.9999411   0.0000000   0.0000000
 O   0.0000000   2.0001482   1.0000179
 H   1.0001501   0.0000000   0.0000000
 H   0.9999981   0.0000000   0.0000000
 O   0.0000000   1.3531468   1.9889859
 H   0.9999611   0.0000000   0.0000000
 H   0.3531857   0.0000000   0.0000000
 O   0.0000000   1.9999517   2.0074928
 H   0.9999941   0.0000000   0.0000000
 H   0.9999576   0.0000000   0.0000000
 O   0.0000000   1.9998708   1.8492759
 H   0.9999554   0.0000000   0.0000000
 H   0.9999154   0.0000000   0.0000000
 O   0.0000000   1.9280121   2.0002485
 H   1.0000629   0.0000000   0.0000000
 H   0.9279492   0.0000000   0.0000000
 O   0.0000000   1.9999975   2.1486031
 H   0.9999994   0.0000000   0.0000000
 H   0.9999981   0.0000000   0.0000000
 O   0.0000000   2.0578516   2.1109328
 H   1.0578583   0.0000000   0.0000000
 H   0.9999933   0.0000000   0.0000000
 O   0.0000000   1.9996103   0.9999397
 H   1.0000071   0.0000000   0.0000000
 H   0.9996032   0.0000000   0.0000000
 O   0.0000000   2.0002035   1.9965219
 H   1.0000805   0.0000000   0.0000000
 H   1.0001230   0.0000000   0.0000000
 O   0.0000000   1.9999762   1.9999404
 H   0.9999774   0.0000000   0.0000000
 H   0.9999987   0.0000000   0.0000000
 O   0.0000000   1.9996499   2.0724929
 H   0.9999901   0.0000000   0.0000000
 H   0.9996597   0.0000000   0.0000000
 O   0.0000000   2.1716557   2.0004451
 H   1.0000196   0.0000000   0.0000000
 H   1.1716360   0.0000000   0.0000000
 O   0.0000000   1.9999733   1.9998194
 H   0.9999978   0.0000000   0.0000000
 H   0.9999755   0.0000000   0.0000000
 O   0.0000000   1.9999455   1.9990928
 H   0.9998498   0.0000000   0.0000000
 H   1.0000956   0.0000000   0.0000000
 O   0.0000000   1.9999317   2.0000000
 H   0.9999951   0.0000000   0.0000000
 H   0.9999367   0.0000000   0.0000000
 O   0.0000000   2.0095477   2.9073439
 H   0.9999969   0.0000000   0.0000000
 H   1.0095508   0.0000000   0.0000000
 O   0.0000000   1.9992037   1.8062539
 H   0.9992089   0.0000000   0.0000000
 H   0.9999948   0.0000000   0.0000000
 O   0.0000000   2.0018978   2.7466624
 H   1.0019006   0.0000000   0.0000000
 H   0.9999972   0.0000000   0.0000000
 O   0.0000000   1.9993542   1.9999452
 H   0.9994199   0.0000000   0.0000000
 H   0.9999343   0.0000000   0.0000000
 O   0.0000000   2.0178433   2.0084004
 H   0.9999893   0.0000000   0.0000000
 H   1.0178540   0.0000000   0.0000000
 O   0.0000000   1.9999121   1.9999446
 H   0.9999163   0.0000000   0.0000000
 H   0.9999958   0.0000000   0.0000000
 O   0.0000000   1.9999412   1.9860287
 H   0.9999657   0.0000000   0.0000000
 H   0.9999755   0.0000000   0.0000000
 O   0.0000000   1.9999806   1.0000408
 H   0.9999994   0.0000000   0.0000000
 H   0.9999812   0.0000000   0.0000000
 O   0.0000000   2.0008458   2.0722073
 H   1.0019976   0.0000000   0.0000000
 H   0.9988482   0.0000000   0.0000000
 O   0.0000000   2.0042922   2.3233724
 H   0.9999324   0.0000000   0.0000000
 H   1.0043598   0.0000000   0.0000000
 O   0.0000000   1.5574094   1.9959947
 H   0.5574107   0.0000000   0.0000000
 H   0.9999987   0.0000000   0.0000000
 O   0.0000000   1.9725665   1.9999226
 H   0.9999976   0.0000000   0.0000000
 H   0.9725690   0.0000000   0.0000000
 O   0.0000000   1.4358317   2.0150951
 H   0.3252283   0.0000000   0.0000000
 H   1.1106034   0.0000000   0.0000000
 O   0.0000000   2.0012453   2.1832934
 H   0.9999903   0.0000000   0.0000000
 H   1.0012550   0.0000000   0.0000000
 O   0.0000000   2.0004109   1.9999475
 H   0.9999935   0.0000000   0.0000000
 H   1.0004174   0.0000000   0.0000000
 O   0.0000000   1.6225399   1.9468338
 H   0.6202657   0.0000000   0.0000000
 H   1.0022742   0.0000000   0.0000000
 O   0.0000000   2.2541118   1.0176289
 H   1.0732785   0.0000000   0.0000000
 H   1.1808333   0.0000000   0.0000000
 O   0.0000000   1.9999554   1.9998377
 H   0.9999846   0.0000000   0.0000000
 H   0.9999708   0.0000000   0.0000000
 O   0.0000000   1.9998635   2.0001566
 H   1.0000163   0.0000000   0.0000000
 H   0.9998472   0.0000000   0.0000000
 O   0.0000000   1.8062961   2.0016386
 H   1.0000306   0.0000000   0.0000000
 H   0.8062654   0.0000000   0.0000000
 O   0.0000000   1.9973261   2.0008691
 H   1.0000145   0.0000000   0.0000000
 H   0.9973117   0.0000000   0.0000000
 O   0.0000000   2.0750543   2.0000183
 H   1.0752104   0.0000000   0.0000000
 H   0.9998439   0.0000000   0.0000000
 O   0.0000000   2.0059096   2.0000664
 H   1.0003650   0.0000000   0.0000000
 H   1.0055446   0.0000000   0.0000000
 O   0.0000000   2.6932796   1.0095073
 H   1.0029286   0.0000000   0.0000000
 H   1.6903510   0.0000000   0.0000000
 O   0.0000000   1.9969028   1.9999319
 H   0.9969051   0.0000000   0.0000000
 H   0.9999977   0.0000000   0.0000000
 O   0.0000000   1.9998657   1.9999922
 H   0.9999479   0.0000000   0.0000000
 H   0.9999179   0.0000000   0.0000000
 O   0.0000000   1.9982146   1.9992433
 H   1.0000027   0.0000000   0.0000000
 H   0.9982119   0.0000000   0.0000000
 O   0.0000000   1.0776414   1.9991618
 H   0.0776591   0.0000000   0.0000000
 H   0.9999824   0.0000000   0.0000000
 O   0.0000000   1.9999840   1.9724211
 H   0.9999933   0.0000000   0.0000000
 H   0.9999907   0.0000000   0.0000000
 O   0.0000000   2.0115464   3.7824510
 H   1.0060357   0.0000000   0.0000000
 H   1.0055108   0.0000000   0.0000000
 O   0.0000000   1.9902978   2.0201872
 H   1.0012283   0.0000000   0.0000000
 H   0.9890696   0.0000000   0.0000000
 O   0.0000000   2.0008714   2.0017327
 H   0.9999519   0.0000000   0.0000000
 H   1.0009195   0.0000000   0.0000000
 O   0.0000000   2.0592909   2.6814548
 H   1.0601682   0.0000000   0.0000000
 H   0.9991227   0.0000000   0.0000000
 O   0.0000000   2.0007406   2.8866903
 H   1.0005138   0.0000000   0.0000000
 H   1.0002268   0.0000000   0.0000000
 192
# CELL(abcABC):   12.41380    12.41380    12.41380    90.00000    90.00000    90.00000  Traj: positions{angstrom} Step:       19987  Bead:       0
 O   0.0000000   1.9499562   1.9914641
 H   1.0001314   0.0000000   0.0000000
 H   0.9498249   0.0000000   0.0000000
 O   0.0000000   2.0934327   1.9994742
 H   1.0000711   0.0000000   0.0000000
 H   1.0933615   0.0000000   0.0000000
 O   0.0000000   2.0031817   2.9970445
 H   0.9999999   0.0000000   0.0000000
 H   1.0031818   0.0000000   0.0000000
 O   0.0000000   2.0369239   2.0496512
 H   1.0375417   0.0000000   0.0000000
 H   0.9993822   0.0000000   0.0000000
 O   0.0000000   2.3218999   2.3065723
 H   1.8949848   0.0000000   0.0000000
 H   0.4269151   0.0000000   0.0000000
 O   0.0000000   1.9998871   1.9994024
 H   0.9999410   0.0000000   0.0000000
 H   0.9999461   0.0000000   0.0000000
 O   0.0000000   1.9994997   1.9997323
 H   0.9996943   0.0000000   0.0000000
 H   0.9998054   0.0000000   0.0000000
 O   0.0000000   2.7882177   2.4557878
 H   0.5140272   0.0000000   0.0000000
 H   2.2741905   0.0000000   0.0000000
 O   0.0000000   2.0406563   2.9978929
 H   1.0031551   0.0000000   0.0000000
 H   1.0375012   0.0000000   0.0000000
 O   0.0000000   1.2874032   1.0475532
 H   0.1556331   0.0000000   0.0000000
 H   1.1317702   0.0000000   0.0000000
 O   0.0000000   2.0208801   3.0026862
 H   0.9999916   0.0000000   0.0000000
 H   1.0208885   0.0000000   0.0000000
 O   0.0000000   2.1608346   1.8681610
 H   1.0005063   0.0000000   0.0000000
 H   1.1603283   0.0000000   0.0000000
 O   0.0000000   1.2708508   2.0006797
 H   0.2708643   0.0000000   0.0000000
 H   0.9999865   0.0000000   0.0000000
 O   0.0000000   2.0224828   2.0026054
 H   0.9999987   0.0000000   0.0000000
 H   1.0224842   0.0000000   0.0000000
 O   0.0000000   2.0736301   1.9978869
 H   1.0735507   0.0000000   0.0000000
 H   1.0000794   0.0000000   0.0000000
 O   0.0000000   1.9214919   1.0024885
 H   0.9283726   0.0000000   0.0000000
 H   0.9931193   0.0000000   0.0000000
 O   0.0000000   1.9997042   1.9882396
 H   0.9997404   0.0000000   0.0000000
 H   0.9999638   0.0000000   0.0000000
 O   0.0000000   1.9963773   1.0030668
 H   0.9964322   0.0000000   0.0000000
 H   0.9999451   0.0000000   0.0000000
 O   0.0000000   1.9659166   1.9999649
 H   0.9999985   0.0000000   0.0000000
 H   0.9659181   0.0000000   0.0000000
 O   0.0000000   2.0024459   1.9999400
 H   1.0024897   0.0000000   0.0000000
 H   0.9999563   0.0000000   0.0000000
 O   0.0000000   1.9999384   2.9652287
 H   0.9999554   0.0000000   0.0000000
 H   0.9999830   0.0000000   0.0000000
 O   0.0000000   2.0002659   2.8734454
 H   1.0007583   0.0000000   0.0000000
 H   0.9995077   0.0000000   0.0000000
 O   0.0000000   1.9974314   1.9999690
 H   0.9999828   0.0000000   0.0000000
 H   0.9974486   0.0000000   0.0000000
 O   0.0000000   2.0000141   2.0059560
 H   1.0000359   0.0000000   0.0000000
 H   0.9999782   0.0000000   0.0000000
 O   0.0000000   2.0107759   2.0211996
 H   1.0107766   0.0000000   0.0000000
 H   0.9999993   0.0000000   0.0000000
 O   0.0000000   2.0006258   1.0159293
 H   1.0006342   0.0000000   0.0000000
 H   0.9999916   0.0000000   0.0000000
 O   0.0000000   2.0023357   2.0225428
 H   0.9999982   0.0000000   0.0000000
 H   1.0023375   0.0000000   0.0000000
 O   0.0000000   1.9999417   2.1182299
 H   0.9999610   0.0000000   0.0000000
 H   0.9999807   0.0000000   0.0000000
 O   0.0000000   1.8683070   2.4195478
 H   0.9999996   0.0000000   0.0000000
 H   0.8683074   0.0000000   0.0000000
 O   0.0000000   1.9998395   1.9996256
 H   0.9999983   0.0000000   0.0000000
 H   0.9998411   0.0000000   0.0000000
 O   0.0000000   1.9458064   2.0002116
 H   0.9999985   0.0000000   0.0000000
 H   0.9458079   0.0000000   0.0000000
 O   0.0000000   2.0001915   1.9999504
 H   0.9999919   0.0000000   0.0000000
 H   1.0001996   0.0000000   0.0000000
 O   0.0000000   1.9998962   2.1545938
 H   0.9998986   0.0000000   0.0000000
 H   0.9999976   0.0000000   0.0000000
 O   0.0000000   1.9999827   1.9989352
 H   0.9999957   0.0000000   0.0000000
 H   0.9999870   0.0000000   0.0000000
 O   0.0000000   2.0350973   1.9999831
 H   0.9999967   0.0000000   0.0000000
 H   1.0351006   0.0000000   0.0000000
 O   0.0000000   1.7884413   2.4206005
 H   1.0007849   0.0000000   0.0000000
 H   0.7876564   0.0000000   0.0000000
 O   0.0000000   1.9995461   1.9996132
 H   0.9999219   0.0000000   0.0000000
 H   0.9996242   0.0000000   0.0000000
 O   0.0000000   2.0011068   2.3912491
 H   1.0011045   0.0000000   0.0000000
 H   1.0000023   0.0000000   0.0000000
 O   0.0000000   2.0035351   2.8706688
 H   1.0000510   0.0000000   0.0000000
 H   1.0034841   0.0000000   0.0000000
 O   0.0000000   1.9999676   2.0046895
 H   0.9999269   0.0000000   0.0000000
 H   1.0000408   0.0000000   0.0000000
 O   0.0000000   1.9970963   2.0031977
 H   0.9970879   0.0000000   0.0000000
 H   1.0000085   0.0000000   0.0000000
 O   0.0000000   1.9999705   2.7416458
 H   0.9999898   0.0000000   0.0000000
 H   0.9999807   0.0000000   0.0000000
 O   0.0000000   1.9999863   2.0013086
 H   0.9999974   0.0000000   0.0000000
 H   0.9999889   0.0000000   0.0000000
 O   0.0000000   2.2179396   2.0869401
 H   1.0013335   0.0000000   0.0000000
 H   1.2166060   0.0000000   0.0000000
 O   0.0000000   1.9982398   1.1933682
 H   0.9977430   0.0000000   0.0000000
 H   1.0004968   0.0000000   0.0000000
 O   0.0000000   2.4545812   2.0066538
 H   1.0000053   0.0000000   0.0000000
 H   1.4545759   0.0000000   0.0000000
 O   0.0000000   2.0102938   1.0412063
 H   1.0027334   0.0000000   0.0000000
 H   1.0075603   0.0000000   0.0000000
 O   0.0000000   1.9968182   1.0273789
 H   0.9999971   0.0000000   0.0000000
 H   0.9968211   0.0000000   0.0000000
 O   0.0000000   2.0000581   1.9999050
 H   1.0000539   0.0000000   0.0000000
 H   1.0000042   0.0000000   0.0000000
 O   0.0000000   1.9999888   2.0445435
 H   1.0000211   0.0000000   0.0000000
 H   0.9999677   0.0000000   0.0000000
 O   0.0000000   1.5196649   1.9657555
 H   0.5438304   0.0000000   0.0000000
 H   0.9758345   0.0000000   0.0000000
 O   0.0000000   1.9998921   1.9999375
 H   0.9999893   0.0000000   0.0000000
 H   0.9999027   0.0000000   0.0000000
 O   0.0000000   2.9211372   2.2582419
 H   1.9212157   0.0000000   0.0000000
 H   0.9999215   0.0000000   0.0000000
 O   0.0000000   2.0005126   1.0001714
 H   0.9999386   0.0000000   0.0000000
 H   1.0005739   0.0000000   0.0000000
 O   0.0000000   2.0035991   1.9999850
 H   0.9999993   0.0000000   0.0000000
 H   1.0035998   0.0000000   0.0000000
 O   0.0000000   1.9998245   1.9464704
 H   0.9998851   0.0000000   0.0000000
 H   0.9999394   0.0000000   0.0000000
 O   0.0000000   2.0000159   2.9250918
 H   1.0000193   0.0000000   0.0000000
 H   0.9999966   0.0000000   0.0000000
 O   0.0000000   1.7577878   2.0003783
 H   0.7577199   0.0000000   0.0000000
 H   1.0000679   0.0000000   0.0000000
 O   0.0000000   1.9999913   1.9998551
 H   0.9999955   0.0000000   0.0000000
 H   0.9999958   0.0000000   0.0000000
 O   0.0000000   2.1830963   3.1518153
 H   1.1830966   0.0000000   0.0000000
 H   0.9999996   0.0000000   0.0000000
 O   0.0000000   1.9961164   1.0008044
 H   1.0078644   0.0000000   0.0000000
 H   0.9882520   0.0000000   0.0000000
 O   0.0000000   2.0000047   2.2143431
 H   0.9999989   0.0000000   0.0000000
 H   1.0000058   0.0000000   0.0000000
 O   0.0000000   2.0031408   1.9999939
 H   1.0031493   0.0000000   0.0000000
 H   0.9999915   0.0000000   0.0000000
 O   0.0000000   2.9872484   1.0542685
 H   1.9873196   0.0000000   0.0000000
 H   0.9999288   0.0000000   0.0000000
 192
# CELL(abcABC):   12.41380    12.41380    12.41380    90.00000    90.00000    90.00000  Traj: positions{angstrom} Step:       20887  Bead:       0
 O   0.0000000   1.9994502   1.5492007
 H   0.9998851   0.0000000   0.0000000
 H   0.9995651   0.0000000   0.0000000
 O   0.0000000   1.8407793   1.0014558
 H   1.0000376   0.0000000   0.0000000
 H   0.8407417   0.0000000   0.0000000
 O   0.0000000   2.0019816   3.4379758
 H   1.0018882   0.0000000   0.0000000
 H   1.0000933   0.0000000   0.0000000
 O   0.0000000   2.0019882   2.0185005
 H   1.0018965   0.0000000   0.0000000
 H   1.0000918   0.0000000   0.0000000
 O   0.0000000   1.9994884   2.0197500
 H   0.9994865   0.0000000   0.0000000
 H   1.0000019   0.0000000   0.0000000
 O   0.0000000   2.0000577   1.9998092
 H   1.0000735   0.0000000   0.0000000
 H   0.9999842   0.0000000   0.0000000
 O   0.0000000   1.9999027   1.9999944
 H   1.0000009   0.0000000   0.0000000
 H   0.9999018   0.0000000   0.0000000
 O   0.0000000   2.0006474   2.0001675
 H   0.9999956   0.0000000   0.0000000
 H   1.0006517   0.0000000   0.0000000
 O   0.0000000   2.0000730   2.9996023
 H   1.0000198   0.0000000   0.0000000
 H   1.0000532   0.0000000   0.0000000
 O   0.0000000   2.1398612   1.8036765
 H   0.9999815   0.0000000   0.0000000
 H   1.1398797   0.0000000   0.0000000
 O   0.0000000   1.9994813   1.7780722
 H   1.0000353   0.0000000   0.0000000
 H   0.9994460   0.0000000   0.0000000
 O   0.0000000   2.0064955   2.0288096
 H   1.0064914   0.0000000   0.0000000
 H   1.0000041   0.0000000   0.0000000
 O   0.0000000   1.9981037   1.9999207
 H   0.9981051   0.0000000   0.0000000
 H   0.9999986   0.0000000   0.0000000
 O   0.0000000   2.0029459   1.9023020
 H   1.0000174   0.0000000   0.0000000
 H   1.0029285   0.0000000   0.0000000
 O   0.0000000   2.0002999   2.0000672
 H   1.0001244   0.0000000   0.0000000
 H   1.0001755   0.0000000   0.0000000
 O   0.0000000   2.5006152   0.9999847
 H   0.9020970   0.0000000   0.0000000
 H   1.5985182   0.0000000   0.0000000
 O   0.0000000   1.9156080   1.9989135
 H   1.0000277   0.0000000   0.0000000
 H   0.9155802   0.0000000   0.0000000
 O   0.0000000   1.9476043   2.0094374
 H   0.9999996   0.0000000   0.0000000
 H   0.9476047   0.0000000   0.0000000
 O   0.0000000   1.9841601   2.0015726
 H   0.9833626   0.0000000   0.0000000
 H   1.0007975   0.0000000   0.0000000
 O   0.0000000   1.9999913   2.9444363
 H   0.9999966   0.0000000   0.0000000
 H   0.9999947   0.0000000   0.0000000
 O   0.0000000   2.8204457   1.9999679
 H   1.0000285   0.0000000   0.0000000
 H   1.8204172   0.0000000   0.0000000
 O   0.0000000   1.9998147   2.9078084
 H   0.9999904   0.0000000   0.0000000
 H   0.9998243   0.0000000   0.0000000
 O   0.0000000   1.7749591   1.5137441
 H   1.0000034   0.0000000   0.0000000
 H   0.7749558   0.0000000   0.0000000
 O   0.0000000   2.0060278   1.9999970
 H   1.0060501   0.0000000   0.0000000
 H   0.9999777   0.0000000   0.0000000
 O   0.0000000   1.0168322   1.9999074
 H   0.9999919   0.0000000   0.0000000
 H   0.0168403   0.0000000   0.0000000
 O   0.0000000   1.9998856   1.0000026
 H   0.9998831   0.0000000   0.0000000
 H   1.0000025   0.0000000   0.0000000
 O   0.0000000   1.5124314   2.0026610
 H   0.9999925   0.0000000   0.0000000
 H   0.5124388   0.0000000   0.0000000
 O   0.0000000   1.9999806   1.9999893
 H   0.9999838   0.0000000   0.0000000
 H   0.9999968   0.0000000   0.0000000
 O   0.0000000   2.0177005   1.0003414
 H   1.0123042   0.0000000   0.0000000
 H   1.0053963   0.0000000   0.0000000
 O   0.0000000   2.0000146   2.0005638
 H   1.0000188   0.0000000   0.0000000
 H   0.9999957   0.0000000   0.0000000
 O   0.0000000   1.9999984   1.9999366
 H   0.9999990   0.0000000   0.0000000
 H   0.9999994   0.0000000   0.0000000
 O   0.0000000   1.9996455   2.8521150
 H   1.0000093   0.0000000   0.0000000
 H   0.9996362   0.0000000   0.0000000
 O   0.0000000   1.9999716   1.0386673
 H   0.9999872   0.0000000   0.0000000
 H   0.9999844   0.0000000   0.0000000
 O   0.0000000   1.9999258   2.0000008
 H   0.9999261   0.0000000   0.0000000
 H   0.9999997   0.0000000   0.0000000
 O   0.0000000   1.9995173   2.1683387
 H   0.9999360   0.0000000   0.0000000
 H   0.9995813   0.0000000   0.0000000
 O   0.0000000   2.5378180   1.9998838
 H   0.9999815   0.0000000   0.0000000
 H   1.5378365   0.0000000   0.0000000
 O   0.0000000   2.0008288   2.0000294
 H   1.0008965   0.0000000   0.0000000
 H   0.9999323   0.0000000   0.0000000
 O   0.0000000   2.0295823   2.0006347
 H   1.0295787   0.0000000   0.0000000
 H   1.0000036   0.0000000   0.0000000
 O   0.0000000   1.9999673   1.9994271
 H   1.0000120   0.0000000   0.0000000
 H   0.9999552   0.0000000   0.0000000
 O   0.0000000   1.9997205   2.9815743
 H   0.9997359   0.0000000   0.0000000
 H   0.9999846   0.0000000   0.0000000
 O   0.0000000   1.6169296   1.9991436
 H   0.6169334   0.0000000   0.0000000
 H   0.9999961   0.0000000   0.0000000
 O   0.0000000   2.0033867   1.9998624
 H   1.0000176   0.0000000   0.0000000
 H   1.0033691   0.0000000   0.0000000
 O   0.0000000   1.1673105   2.0322601
 H   0.1673185   0.0000000   0.0000000
 H   0.9999920   0.0000000   0.0000000
 O   0.0000000   1.9811875   1.9998976
 H   0.9999953   0.0000000   0.0000000
 H   0.9811922   0.0000000   0.0000000
 O   0.0000000   1.9999970   1.9999814
 H   1.0000062   0.0000000   0.0000000
 H   0.9999909   0.0000000   0.0000000
 O   0.0000000   1.9870080   2.0002846
 H   0.9999786   0.0000000   0.0000000
 H   0.9870293   0.0000000   0.0000000
 O   0.0000000   4.1162903   1.0021371
 H   1.9081498   0.0000000   0.0000000
 H   2.2081404   0.0000000   0.0000000
 O   0.0000000   2.0093543   2.0013923
 H   1.0000026   0.0000000   0.0000000
 H   1.0093517   0.0000000   0.0000000
 O   0.0000000   2.0000059   1.9995740
 H   0.9999954   0.0000000   0.0000000
 H   1.0000105   0.0000000   0.0000000
 O   0.0000000   1.9530752   2.0000216
 H   0.9999768   0.0000000   0.0000000
 H   0.9530984   0.0000000   0.0000000
 O   0.0000000   1.9998645   1.9995544
 H   0.9998711   0.0000000   0.0000000
 H   0.9999934   0.0000000   0.0000000
 O   0.0000000   2.0001179   2.0034279
 H   0.9999744   0.0000000   0.0000000
 H   1.0001435   0.0000000   0.0000000
 O   0.0000000   2.0030842   2.9979380
 H   1.0030874   0.0000000   0.0000000
 H   0.9999968   0.0000000   0.0000000
 O   0.0000000   1.9999645   2.3819064
 H   0.9995868   0.0000000   0.0000000
 H   1.0003777   0.0000000   0.0000000
 O   0.0000000   2.0015428   1.0180773
 H   0.9999926   0.0000000   0.0000000
 H   1.0015502   0.0000000   0.0000000
 O   0.0000000   1.9998626   2.0000156
 H   0.9998637   0.0000000   0.0000000
 H   0.9999989   0.0000000   0.0000000
 O   0.0000000   1.9983223   2.5987460
 H   0.9999990   0.0000000   0.0000000
 H   0.9983233   0.0000000   0.0000000
 O   0.0000000   1.9994837   1.9998916
 H   0.9997813   0.0000000   0.0000000
 H   0.9997024   0.0000000   0.0000000
 O   0.0000000   2.0184858   1.9998881
 H   0.9999908   0.0000000   0.0000000
 H   1.0184950   0.0000000   0.0000000